<LesHouchesEvents version="3.0">
<header>
<!--
#*********************************************************************
#                                                                    *
#                        MadGraph5_aMC@NLO                           *
#                                                                    *
#                           Going Beyond                             *
#                                                                    *
#                   http://madgraph.hep.uiuc.edu                     *
#                   http://madgraph.phys.ucl.ac.be                   *
#                   http://amcatnlo.cern.ch                          *
#                                                                    *
#                     The MadGraph5_aMC@NLO team                     *
#                                                                    *
#....................................................................*
#                                                                    *
# This file contains all the information necessary to reproduce      *
# the events generated:                                              *
#                                                                    *
# 1. software version                                                *
# 2. proc_card          : code generation info including model       *
# 3. param_card         : model primary parameters in the LH format  *
# 4. run_card           : running parameters (collider and cuts)     *
# 5. pythia_card        : present only if pythia has been run        *
# 6. pgs_card           : present only if pgs has been run           *
# 7. delphes_cards      : present only if delphes has been run       *
#                                                                    *
#                                                                    *
#*********************************************************************
-->
<MGVersion>
#2.6.5
</MGVersion>
<MG5ProcCard>
<![CDATA[
#************************************************************
#*                     MadGraph5_aMC@NLO                    *
#*                                                          *
#*                *                       *                 *
#*                  *        * *        *                   *
#*                    * * * * 5 * * * *                     *
#*                  *        * *        *                   *
#*                *                       *                 *
#*                                                          *
#*                                                          *
#*         VERSION 2.6.5                 2018-02-03         *
#*                                                          *
#*    The MadGraph5_aMC@NLO Development Team - Find us at   *
#*    https://server06.fynu.ucl.ac.be/projects/madgraph     *
#*                                                          *
#************************************************************
#*                                                          *
#*               Command File for MadGraph5_aMC@NLO         *
#*                                                          *
#*     run as ./bin/mg5_aMC  filename                       *
#*                                                          *
#************************************************************
set default_unset_couplings 99
set group_subprocesses Auto
set ignore_six_quark_processes False
set loop_optimized_output True
set loop_color_flows False
set gauge unitary
set complex_mass_scheme False
set max_npoint_for_channel 0
import model /afs/cern.ch/work/j/jthomasw/private/IHEP/MCGen/genproduc\
tions/bin/MadGraph5_aMCatNLO/UFO_models/Yt_UFO
define p = g u c d s u~ c~ d~ s~
define j = g u c d s u~ c~ d~ s~
define l+ = e+ mu+
define l- = e- mu-
define vl = ve vm vt
define vl~ = ve~ vm~ vt~
generate p b > j w- z t QCD=0 QED=99 QNP=2
add process p b~ > j w+ z t~ QCD=0 QED=99 QNP=2
output tWZj --nojpeg
]]>
</MG5ProcCard>
<MGProcCard>
#*********************************************************************
#                        MadGraph/MadEvent                           *
#                   http://madgraph.hep.uiuc.edu                     *
#                                                                    *
#                          proc_card.dat                             *
#*********************************************************************
#                                                                    *
#            This Files is generated by MADGRAPH 5                   *
#                                                                    *
# WARNING: This Files is generated for MADEVENT (compatibility issue)*
#          This files is NOT a valid MG4 proc_card.dat               *
#          Running this in MG4 will NEVER reproduce the result of MG5*
#                                                                    *
#*********************************************************************
#*********************************************************************
# Process(es) requested : mg2 input                                  *
#*********************************************************************
# Begin PROCESS # This is TAG. Do not modify this line
p b > j w- z t           #Process
# Be carefull the coupling are here in MG5 convention
QCD=0
QED=99
QNP=2
          
end_coup           # End the couplings input

done               # this tells MG there are no more procs
# End PROCESS  # This is TAG. Do not modify this line
#*********************************************************************
# Model information                                                  *
#*********************************************************************
# Begin MODEL  # This is TAG. Do not modify this line
Yt_UFO
# End   MODEL  # This is TAG. Do not modify this line
#*********************************************************************
# Start multiparticle definitions                                    *
#*********************************************************************
# Begin MULTIPARTICLES # This is TAG. Do not modify this line

# End  MULTIPARTICLES # This is TAG. Do not modify this line
</MGProcCard>
<MGRunCard>
<![CDATA[
#*********************************************************************
#                       MadGraph5_aMC@NLO                            *
#                                                                    *
#                     run_card.dat MadEvent                          *
#                                                                    *
#  This file is used to set the parameters of the run.               *
#                                                                    *
#  Some notation/conventions:                                        *
#                                                                    *
#   Lines starting with a '# ' are info or comments                  *
#                                                                    *
#   mind the format:   value    = variable     ! comment             *
#                                                                    *
#   To display more options, you can type the command:               *
#      update full_run_card                                          *
#*********************************************************************
#
#*******************                                                 
# Running parameters
#*******************                                                 
#                                                                    
#*********************************************************************
# Tag name for the run (one word)                                    *
#*********************************************************************
  tag_1	= run_tag ! name of the run 
#*********************************************************************
# Number of events and rnd seed                                      *
# Warning: Do not generate more than 1M events in a single run       *
# If you want to run Pythia, avoid more than 50k events in a run.    *
#*********************************************************************
  1000	= nevents ! Number of unweighted events requested 
 1910 = iseed ! rnd seed (0=assigned automatically=default))
#*********************************************************************
# Collider type and energy                                           *
# lpp: 0=No PDF, 1=proton, -1=antiproton, 2=photon from proton,      *
#                                         3=photon from electron     *
#*********************************************************************
  1	= lpp1 ! beam 1 type 
  1	= lpp2 ! beam 2 type
  7000.0	= ebeam1 ! beam 1 total energy in GeV
  7000.0	= ebeam2 ! beam 2 total energy in GeV
# To see polarised beam options: type "update beam_pol"
#*********************************************************************
# PDF CHOICE: this automatically fixes also alpha_s and its evol.    *
#*********************************************************************
  lhapdf	= pdlabel ! PDF set                                     
  325300	= lhaid ! if pdlabel=lhapdf, this is the lhapdf number
# To see heavy ion options: type "update ion_pdf"
#*********************************************************************
# Renormalization and factorization scales                           *
#*********************************************************************
  False	= fixed_ren_scale ! if .true. use fixed ren scale
  False	= fixed_fac_scale ! if .true. use fixed fac scale
  91.188	= scale ! fixed ren scale
  91.188	= dsqrt_q2fact1 ! fixed fact scale for pdf1
  91.188	= dsqrt_q2fact2 ! fixed fact scale for pdf2
  -1	= dynamical_scale_choice ! Choose one of the preselected dynamical choices
  1.0	= scalefact ! scale factor for event-by-event scales
#*********************************************************************
# Type and output format
#*********************************************************************
  True	= gridpack !True = setting up the grid pack
  -1.0	= time_of_flight ! threshold (in mm) below which the invariant livetime is not written (-1 means not written)
  3.0	= lhe_version ! Change the way clustering information pass to shower.        
  True	= clusinfo ! include clustering tag in output
  average	= event_norm ! average/sum. Normalization of the weight in the LHEF

#*********************************************************************
# Matching parameter (MLM only)
#*********************************************************************
  0	= ickkw ! 0 no matching, 1 MLM
  1.0	= alpsfact ! scale factor for QCD emission vx
  False	= chcluster ! cluster only according to channel diag
  5	= asrwgtflavor ! highest quark flavor for a_s reweight
  False	= auto_ptj_mjj ! Automatic setting of ptj and mjj if xqcut >0
                                   ! (turn off for VBF and single top processes) 
  0.0	= xqcut ! minimum kt jet measure between partons
#*********************************************************************
#
#*********************************************************************
# handling of the helicities:
#  0: sum over all helicities
#  1: importance sampling over helicities
#*********************************************************************
  0	= nhel ! using helicities importance sampling or not.
#*********************************************************************
# Generation bias, check the wiki page below for more information:   *
#  'cp3.irmp.ucl.ac.be/projects/madgraph/wiki/LOEventGenerationBias' *
#*********************************************************************
  None	= bias_module ! Bias type of bias, [None, ptj_bias, -custom_folder-]
  {}	= bias_parameters ! Specifies the parameters of the module.
#
#*******************************                                                 
# Parton level cuts definition *
#*******************************                                     
#                                                                    
#
#*********************************************************************
# BW cutoff (M+/-bwcutoff*Gamma) ! Define on/off-shell for "$" and decay  
#*********************************************************************
  15.0	= bwcutoff ! (M+/-bwcutoff*Gamma)
#*********************************************************************
# Apply pt/E/eta/dr/mij/kt_durham cuts on decay products or not
# (note that etmiss/ptll/ptheavy/ht/sorted cuts always apply)
#*********************************************************************
  False	= cut_decays ! Cut decay products 
#*********************************************************************
# Standard Cuts                                                      *
#*********************************************************************
# Minimum and maximum pt's (for max, -1 means no cut)                *
#*********************************************************************
  20.0	= ptj ! minimum pt for the jets 
  0.0	= ptb ! minimum pt for the b 
  10.0	= pta ! minimum pt for the photons 
  10.0	= ptl ! minimum pt for the charged leptons 
  0.0	= misset ! minimum missing Et (sum of neutrino's momenta)
  -1.0	= ptjmax ! maximum pt for the jets
  -1.0	= ptbmax ! maximum pt for the b
  -1.0	= ptamax ! maximum pt for the photons
  -1.0	= ptlmax ! maximum pt for the charged leptons
  -1.0	= missetmax ! maximum missing Et (sum of neutrino's momenta)
  {'6': 500.0}	= pt_min_pdg ! pt cut for other particles (use pdg code). Applied on particle and anti-particle
  {'6': 50000.0}	= pt_max_pdg ! pt cut for other particles (syntax e.g. {6: 100, 25: 50}) 
#*********************************************************************
# Minimum and maximum E's (in the center of mass frame)              *
#*********************************************************************
  0.0	= ej ! minimum E for the jets 
  0.0	= eb ! minimum E for the b 
  0.0	= ea ! minimum E for the photons 
  0.0	= el ! minimum E for the charged leptons 
  -1.0	= ejmax ! maximum E for the jets
  -1.0	= ebmax ! maximum E for the b
  -1.0	= eamax ! maximum E for the photons
  -1.0	= elmax ! maximum E for the charged leptons
  {}	= e_min_pdg ! E cut for other particles (use pdg code). Applied on particle and anti-particle
  {}	= e_max_pdg ! E cut for other particles (syntax e.g. {6: 100, 25: 50}) 
#*********************************************************************
# Maximum and minimum absolute rapidity (for max, -1 means no cut)   *
#*********************************************************************
  5.0	= etaj ! max rap for the jets 
  -1.0	= etab ! max rap for the b
  2.5	= etaa ! max rap for the photons 
  2.5	= etal ! max rap for the charged leptons 
  0.0	= etajmin ! min rap for the jets
  0.0	= etabmin ! min rap for the b
  0.0	= etaamin ! min rap for the photons
  0.0	= etalmin ! main rap for the charged leptons
  {}	= eta_min_pdg ! rap cut for other particles (use pdg code). Applied on particle and anti-particle
  {}	= eta_max_pdg ! rap cut for other particles (syntax e.g. {6: 2.5, 23: 5})
#*********************************************************************
# Minimum and maximum DeltaR distance                                *
#*********************************************************************
  0.4	= drjj ! min distance between jets 
  0.0	= drbb ! min distance between b's 
  0.4	= drll ! min distance between leptons 
  0.4	= draa ! min distance between gammas 
  0.0	= drbj ! min distance between b and jet 
  0.4	= draj ! min distance between gamma and jet 
  0.4	= drjl ! min distance between jet and lepton 
  0.0	= drab ! min distance between gamma and b 
  0.0	= drbl ! min distance between b and lepton 
  0.4	= dral ! min distance between gamma and lepton 
  -1.0	= drjjmax ! max distance between jets
  -1.0	= drbbmax ! max distance between b's
  -1.0	= drllmax ! max distance between leptons
  -1.0	= draamax ! max distance between gammas
  -1.0	= drbjmax ! max distance between b and jet
  -1.0	= drajmax ! max distance between gamma and jet
  -1.0	= drjlmax ! max distance between jet and lepton
  -1.0	= drabmax ! max distance between gamma and b
  -1.0	= drblmax ! max distance between b and lepton
  -1.0	= dralmax ! maxdistance between gamma and lepton
#*********************************************************************
# Minimum and maximum invariant mass for pairs                       *
# WARNING: for four lepton final state mmll cut require to have      *
#          different lepton masses for each flavor!                  *           
#*********************************************************************
  0.0	= mmjj ! min invariant mass of a jet pair 
  0.0	= mmbb ! min invariant mass of a b pair 
  0.0	= mmaa ! min invariant mass of gamma gamma pair
  0.0	= mmll ! min invariant mass of l+l- (same flavour) lepton pair
  -1.0	= mmjjmax ! max invariant mass of a jet pair
  -1.0	= mmbbmax ! max invariant mass of a b pair
  -1.0	= mmaamax ! max invariant mass of gamma gamma pair
  -1.0	= mmllmax ! max invariant mass of l+l- (same flavour) lepton pair
  {}	= mxx_min_pdg ! min invariant mass of a pair of particles X/X~ (e.g. {6:250})
  {'default': False}	= mxx_only_part_antipart ! if True the invariant mass is applied only 
                       ! to pairs of particle/antiparticle and not to pairs of the same pdg codes.  
#*********************************************************************
# Minimum and maximum invariant mass for all letpons                 *
#*********************************************************************
  0.0	= mmnl ! min invariant mass for all letpons (l+- and vl) 
  -1.0	= mmnlmax ! max invariant mass for all letpons (l+- and vl) 
#*********************************************************************
# Minimum and maximum pt for 4-momenta sum of leptons                *
#*********************************************************************
  0.0	= ptllmin ! Minimum pt for 4-momenta sum of leptons(l and vl)
  -1.0	= ptllmax ! Maximum pt for 4-momenta sum of leptons(l and vl)
#*********************************************************************
# Inclusive cuts                                                     *
#*********************************************************************
  0.0	= ptheavy ! minimum pt for at least one heavy final state
  0.0	= xptj ! minimum pt for at least one jet  
  0.0	= xptb ! minimum pt for at least one b 
  0.0	= xpta ! minimum pt for at least one photon 
  0.0	= xptl ! minimum pt for at least one charged lepton 
#*********************************************************************
# Control the pt's of the jets sorted by pt                          *
#*********************************************************************
  0.0	= ptj1min ! minimum pt for the leading jet in pt
  0.0	= ptj2min ! minimum pt for the second jet in pt
  0.0	= ptj3min ! minimum pt for the third jet in pt
  0.0	= ptj4min ! minimum pt for the fourth jet in pt
  -1.0	= ptj1max ! maximum pt for the leading jet in pt 
  -1.0	= ptj2max ! maximum pt for the second jet in pt
  -1.0	= ptj3max ! maximum pt for the third jet in pt
  -1.0	= ptj4max ! maximum pt for the fourth jet in pt
  0	= cutuse ! reject event if fails any (0) / all (1) jet pt cuts
#*********************************************************************
# Control the pt's of leptons sorted by pt                           *
#*********************************************************************
  0.0	= ptl1min ! minimum pt for the leading lepton in pt
  0.0	= ptl2min ! minimum pt for the second lepton in pt
  0.0	= ptl3min ! minimum pt for the third lepton in pt
  0.0	= ptl4min ! minimum pt for the fourth lepton in pt
  -1.0	= ptl1max ! maximum pt for the leading lepton in pt 
  -1.0	= ptl2max ! maximum pt for the second lepton in pt
  -1.0	= ptl3max ! maximum pt for the third lepton in pt
  -1.0	= ptl4max ! maximum pt for the fourth lepton in pt
#*********************************************************************
# Control the Ht(k)=Sum of k leading jets                            *
#*********************************************************************
  0.0	= htjmin ! minimum jet HT=Sum(jet pt)
  -1.0	= htjmax ! maximum jet HT=Sum(jet pt)
  0.0	= ihtmin !inclusive Ht for all partons (including b)
  -1.0	= ihtmax !inclusive Ht for all partons (including b)
  0.0	= ht2min ! minimum Ht for the two leading jets
  0.0	= ht3min ! minimum Ht for the three leading jets
  0.0	= ht4min ! minimum Ht for the four leading jets
  -1.0	= ht2max ! maximum Ht for the two leading jets
  -1.0	= ht3max ! maximum Ht for the three leading jets
  -1.0	= ht4max ! maximum Ht for the four leading jets
#***********************************************************************
# Photon-isolation cuts, according to hep-ph/9801442                   *
# When ptgmin=0, all the other parameters are ignored                  *
# When ptgmin>0, pta and draj are not going to be used                 *
#***********************************************************************
  0.0	= ptgmin ! Min photon transverse momentum
  0.4	= r0gamma ! Radius of isolation code
  1.0	= xn ! n parameter of eq.(3.4) in hep-ph/9801442
  1.0	= epsgamma ! epsilon_gamma parameter of eq.(3.4) in hep-ph/9801442
  True	= isoem ! isolate photons from EM energy (photons and leptons)
#*********************************************************************
# WBF cuts                                                           *
#*********************************************************************
  0.0	= xetamin ! minimum rapidity for two jets in the WBF case  
  0.0	= deltaeta ! minimum rapidity for two jets in the WBF case 
#***********************************************************************
# Turn on either the ktdurham or ptlund cut to activate                *
# CKKW(L) merging with Pythia8 [arXiv:1410.3012, arXiv:1109.4829]      *
#***********************************************************************
  -1.0	= ktdurham 
  0.4	= dparameter 
  -1.0	= ptlund 
  1, 2, 3, 4, 5, 6, 21	= pdgs_for_merging_cut ! PDGs for two cuts above   
#*********************************************************************
# maximal pdg code for quark to be considered as a light jet         *
# (otherwise b cuts are applied)                                     *
#*********************************************************************
  4	= maxjetflavor ! Maximum jet pdg code
#*********************************************************************
#
#*********************************************************************
# Store info for systematics studies                                 *
# WARNING: Do not use for interference type of computation           *
#*********************************************************************
  True	= use_syst ! Enable systematics studies
#
  None	= systematics_program ! none, systematics [python], SysCalc [depreceted, C++]
['--mur=0.5,1,2', '--muf=0.5,1,2', '--pdf=errorset'] = systematics_arguments ! see: https://cp3.irmp.ucl.ac.be/projects/madgraph/wiki/Systematics#Systematicspythonmodule
# Syscalc is deprecated but to see the associate options type'update syscalc'#********************************************************************* 
#  Additional hidden parameters
#*********************************************************************
  ['--mur=0.5,1,2', '--muf=0.5,1,2', '--pdf=errorset']	= systematics_arguments # Choose the argment to pass to the systematics command. like --mur=0.25,1,4. Look at the help of the systematics function for more details.
]]>
</MGRunCard>
<slha>
######################################################################
## PARAM_CARD AUTOMATICALY GENERATED BY MG5                       ####
######################################################################
###################################
## INFORMATION FOR MASS
###################################
BLOCK MASS #
      1 5.040000e-03 # md
      2 2.550000e-03 # mu
      3 1.010000e-01 # ms
      4 1.270000e+00 # mc
      5 4.700000e+00 # mb
      #4 0.000000e+00 # MC
      #5 0.000000e+00 # MB
      6 1.720000e+02 # mt
      11 5.110000e-04 # me
      13 1.056600e-01 # mmu
      15 1.777000e+00 # mta
      12 0.000000e+00 # ve : 0.0
      14 0.000000e+00 # vm : 0.0
      16 0.000000e+00 # vt : 0.0
      21 0.000000e+00 # g : 0.0
      22 0.000000e+00 # a : 0.0
      23 8.955833e+01 # z : cmath.sqrt((gw__exp__2*(1 - ct + (8*ca*sw__exp__4)/cw__exp__2)*vev__exp__2)/cw__exp__2)/2.
      24 8.038500e+01 # mw
      25 1.250000e+02 # mh
###################################
## INFORMATION FOR NEWCOUP
###################################
BLOCK NEWCOUP #
      1 1.000000e-01 # ch
      2 1.000000e-01 # ct
      3 1.000000e-01 # c6
      4 1.000000e-01 # cu
      5 1.000000e-01 # cd
      6 1.000000e-01 # cl
      7 1.000000e-01 # cww
      8 1.000000e-01 # cb
      9 1.000000e-01 # chw
      10 1.000000e-01 # chb
      11 1.000000e-01 # ca
      12 1.000000e-01 # cg
      13 1.000000e-01 # chq
      14 1.000000e-01 # cphq
      15 1.000000e-01 # chu
      16 1.000000e-01 # chd
      17 1.000000e-01 # chud
      18 1.000000e-01 # chl
      19 1.000000e-01 # cphl
      20 1.000000e-01 # che
      21 1.000000e-01 # cub
      22 1.000000e-01 # cuw
      23 1.000000e-01 # cug
      24 1.000000e-01 # cdb
      25 1.000000e-01 # cdw
      26 1.000000e-01 # cdg
      27 1.000000e-01 # clb
      28 1.000000e-01 # clw
      29 1.000000e-01 # c3w
      30 1.000000e-01 # c3g
      31 1.000000e-01 # c2w
      32 1.000000e-01 # c2b
      33 1.000000e-01 # c2g
      34 1.000000e-01 # tchw
      35 1.000000e-01 # tchb
      36 1.000000e-01 # tcg
      37 1.000000e-01 # tca
      38 1.000000e-01 # tc3w
      39 1.000000e-01 # tc3g
###################################
## INFORMATION FOR SMINPUTS
###################################
BLOCK SMINPUTS #
      1 1.279000e+02 # aewm1
      2 1.166370e-05 # gf
      3 1.184000e-01 # as

###################################
## INFORMATION FOR WOLFENSTEIN
###################################
Block Wolfenstein
    1 0.000000e+00 # lamWS
    2 0.000000e+00 # AWS
    3 0.000000e+00 # rhoWS
    4 0.000000e+00 # etaWS

###################################
## INFORMATION FOR YUKAWA
###################################
BLOCK YUKAWA #
      1 5.040000e-03 # ymdo
      2 2.550000e-03 # ymup
      3 1.010000e-01 # yms
      4 1.270000e+00 # ymc
      5 4.700000e+00 # ymb
      #4 0.000000e+00 # ymc
      #5 0.000000e+00 # ymb
      6 1.720000e+02 # ymt
      11 5.110000e-04 # yme
      13 1.056600e-01 # ymm
      15 1.777000e+00 # ymtau
#
#*************************
#      Decay widths      *
#*************************
#
#      PDG        Width
DECAY  1   0.000000e+00
#
#      PDG        Width
DECAY  2   0.000000e+00
#
#      PDG        Width
DECAY  3   0.000000e+00
#
#      PDG        Width
DECAY  4   0.000000e+00
#
#      PDG        Width
DECAY  5   0.000000e+00
#
#      PDG        Width
DECAY  6   1.461705e+00
#  BR             NDA  ID1    ID2   ...
   1.000000e+00   2    24  5 # 1.46170524808
#
#      PDG        Width
DECAY  11   0.000000e+00
#
#      PDG        Width
DECAY  12   0.000000e+00
#
#      PDG        Width
DECAY  13   0.000000e+00
#
#      PDG        Width
DECAY  14   0.000000e+00
#
#      PDG        Width
DECAY  15   0.000000e+00
#
#      PDG        Width
DECAY  16   0.000000e+00
#
#      PDG        Width
DECAY  21   0.000000e+00
#
#      PDG        Width
DECAY  22   0.000000e+00
#
#      PDG        Width
DECAY  23   2.399741e+00
#  BR             NDA  ID1    ID2   ...
   1.521818e-01   2    1  -1 # 0.365196829783
   1.521810e-01   2    3  -3 # 0.365194951332
   1.504849e-01   2    5  -5 # 0.361124781755
   1.181134e-01   2    2  -2 # 0.283441522445
   1.179893e-01   2    4  -4 # 0.283143827374
   6.855599e-02   2    16  -16 # 0.164516612227
   6.855599e-02   2    14  -14 # 0.164516612227
   6.855599e-02   2    12  -12 # 0.164516612227
   3.448760e-02   2    11  -11 # 0.0827613013846
   3.448731e-02   2    13  -13 # 0.0827606144276
   3.440666e-02   2    15  -15 # 0.0825670680004
#
#      PDG        Width
DECAY  24   2.045021e+00
#  BR             NDA  ID1    ID2   ...
   3.334025e-01   2    2  -1 # 0.68181494988
   3.332768e-01   2    4  -3 # 0.681558061328
   1.111342e-01   2    12  -11 # 0.227271651629
   1.111339e-01   2    14  -13 # 0.227271062653
   1.110527e-01   2    16  -15 # 0.227105056891
#
#      PDG        Width
DECAY  25   4.070000e-03
</slha>
<initrwgt>
<weight id="1001" MUR="1.0" MUF="1.0" PDF="325300" >  </weight>
<weightgroup name="Central scale variation" combine="envelope">
<weight id="1002" MUR="1.0" MUF="1.0" DYN_SCALE="1" PDF="325300" > dyn_scale_choice=sum pt  </weight>
<weight id="1003" MUR="1.0" MUF="1.0" DYN_SCALE="2" PDF="325300" > dyn_scale_choice=HT  </weight>
<weight id="1004" MUR="1.0" MUF="1.0" DYN_SCALE="3" PDF="325300" > dyn_scale_choice=HT/2  </weight>
<weight id="1005" MUR="1.0" MUF="1.0" DYN_SCALE="4" PDF="325300" > dyn_scale_choice=sqrts  </weight>
<weight id="1006" MUR="2.0" MUF="1.0" PDF="325300" > MUR=2.0  </weight>
<weight id="1007" MUR="2.0" MUF="1.0" DYN_SCALE="1" PDF="325300" > MUR=2.0 dyn_scale_choice=sum pt  </weight>
<weight id="1008" MUR="2.0" MUF="1.0" DYN_SCALE="2" PDF="325300" > MUR=2.0 dyn_scale_choice=HT  </weight>
<weight id="1009" MUR="2.0" MUF="1.0" DYN_SCALE="3" PDF="325300" > MUR=2.0 dyn_scale_choice=HT/2  </weight>
<weight id="1010" MUR="2.0" MUF="1.0" DYN_SCALE="4" PDF="325300" > MUR=2.0 dyn_scale_choice=sqrts  </weight>
<weight id="1011" MUR="0.5" MUF="1.0" PDF="325300" > MUR=0.5  </weight>
<weight id="1012" MUR="0.5" MUF="1.0" DYN_SCALE="1" PDF="325300" > MUR=0.5 dyn_scale_choice=sum pt  </weight>
<weight id="1013" MUR="0.5" MUF="1.0" DYN_SCALE="2" PDF="325300" > MUR=0.5 dyn_scale_choice=HT  </weight>
<weight id="1014" MUR="0.5" MUF="1.0" DYN_SCALE="3" PDF="325300" > MUR=0.5 dyn_scale_choice=HT/2  </weight>
<weight id="1015" MUR="0.5" MUF="1.0" DYN_SCALE="4" PDF="325300" > MUR=0.5 dyn_scale_choice=sqrts  </weight>
<weight id="1016" MUR="1.0" MUF="2.0" PDF="325300" > MUF=2.0  </weight>
<weight id="1017" MUR="1.0" MUF="2.0" DYN_SCALE="1" PDF="325300" > MUF=2.0 dyn_scale_choice=sum pt  </weight>
<weight id="1018" MUR="1.0" MUF="2.0" DYN_SCALE="2" PDF="325300" > MUF=2.0 dyn_scale_choice=HT  </weight>
<weight id="1019" MUR="1.0" MUF="2.0" DYN_SCALE="3" PDF="325300" > MUF=2.0 dyn_scale_choice=HT/2  </weight>
<weight id="1020" MUR="1.0" MUF="2.0" DYN_SCALE="4" PDF="325300" > MUF=2.0 dyn_scale_choice=sqrts  </weight>
<weight id="1021" MUR="2.0" MUF="2.0" PDF="325300" > MUR=2.0 MUF=2.0  </weight>
<weight id="1022" MUR="2.0" MUF="2.0" DYN_SCALE="1" PDF="325300" > MUR=2.0 MUF=2.0 dyn_scale_choice=sum pt  </weight>
<weight id="1023" MUR="2.0" MUF="2.0" DYN_SCALE="2" PDF="325300" > MUR=2.0 MUF=2.0 dyn_scale_choice=HT  </weight>
<weight id="1024" MUR="2.0" MUF="2.0" DYN_SCALE="3" PDF="325300" > MUR=2.0 MUF=2.0 dyn_scale_choice=HT/2  </weight>
<weight id="1025" MUR="2.0" MUF="2.0" DYN_SCALE="4" PDF="325300" > MUR=2.0 MUF=2.0 dyn_scale_choice=sqrts  </weight>
<weight id="1026" MUR="0.5" MUF="2.0" PDF="325300" > MUR=0.5 MUF=2.0  </weight>
<weight id="1027" MUR="0.5" MUF="2.0" DYN_SCALE="1" PDF="325300" > MUR=0.5 MUF=2.0 dyn_scale_choice=sum pt  </weight>
<weight id="1028" MUR="0.5" MUF="2.0" DYN_SCALE="2" PDF="325300" > MUR=0.5 MUF=2.0 dyn_scale_choice=HT  </weight>
<weight id="1029" MUR="0.5" MUF="2.0" DYN_SCALE="3" PDF="325300" > MUR=0.5 MUF=2.0 dyn_scale_choice=HT/2  </weight>
<weight id="1030" MUR="0.5" MUF="2.0" DYN_SCALE="4" PDF="325300" > MUR=0.5 MUF=2.0 dyn_scale_choice=sqrts  </weight>
<weight id="1031" MUR="1.0" MUF="0.5" PDF="325300" > MUF=0.5  </weight>
<weight id="1032" MUR="1.0" MUF="0.5" DYN_SCALE="1" PDF="325300" > MUF=0.5 dyn_scale_choice=sum pt  </weight>
<weight id="1033" MUR="1.0" MUF="0.5" DYN_SCALE="2" PDF="325300" > MUF=0.5 dyn_scale_choice=HT  </weight>
<weight id="1034" MUR="1.0" MUF="0.5" DYN_SCALE="3" PDF="325300" > MUF=0.5 dyn_scale_choice=HT/2  </weight>
<weight id="1035" MUR="1.0" MUF="0.5" DYN_SCALE="4" PDF="325300" > MUF=0.5 dyn_scale_choice=sqrts  </weight>
<weight id="1036" MUR="2.0" MUF="0.5" PDF="325300" > MUR=2.0 MUF=0.5  </weight>
<weight id="1037" MUR="2.0" MUF="0.5" DYN_SCALE="1" PDF="325300" > MUR=2.0 MUF=0.5 dyn_scale_choice=sum pt  </weight>
<weight id="1038" MUR="2.0" MUF="0.5" DYN_SCALE="2" PDF="325300" > MUR=2.0 MUF=0.5 dyn_scale_choice=HT  </weight>
<weight id="1039" MUR="2.0" MUF="0.5" DYN_SCALE="3" PDF="325300" > MUR=2.0 MUF=0.5 dyn_scale_choice=HT/2  </weight>
<weight id="1040" MUR="2.0" MUF="0.5" DYN_SCALE="4" PDF="325300" > MUR=2.0 MUF=0.5 dyn_scale_choice=sqrts  </weight>
<weight id="1041" MUR="0.5" MUF="0.5" PDF="325300" > MUR=0.5 MUF=0.5  </weight>
<weight id="1042" MUR="0.5" MUF="0.5" DYN_SCALE="1" PDF="325300" > MUR=0.5 MUF=0.5 dyn_scale_choice=sum pt  </weight>
<weight id="1043" MUR="0.5" MUF="0.5" DYN_SCALE="2" PDF="325300" > MUR=0.5 MUF=0.5 dyn_scale_choice=HT  </weight>
<weight id="1044" MUR="0.5" MUF="0.5" DYN_SCALE="3" PDF="325300" > MUR=0.5 MUF=0.5 dyn_scale_choice=HT/2  </weight>
<weight id="1045" MUR="0.5" MUF="0.5" DYN_SCALE="4" PDF="325300" > MUR=0.5 MUF=0.5 dyn_scale_choice=sqrts  </weight>
</weightgroup> # scale
<weightgroup name="Emission scale variation" combine="envelope">
<weight id="1046" MUR="1.0" MUF="1.0" ALPSFACT="0.5" PDF="325300" > alpsfact=0.5  </weight>
<weight id="1047" MUR="1.0" MUF="1.0" ALPSFACT="2.0" PDF="325300" > alpsfact=2.0  </weight>
</weightgroup> # ALPS
<weightgroup name="NNPDF31_nnlo_as_0118_nf_4_mc_hessian" combine="symmhessian"> # 325500: Hessian NNPDF31_nnlo_as_0118_nf_4_mc_hessian
<weight id="1048" MUR="1.0" MUF="1.0" PDF="325500" > PDF=325500 MemberID=0 </weight>
<weight id="1049" MUR="1.0" MUF="1.0" PDF="325501" > PDF=325500 MemberID=1 </weight>
<weight id="1050" MUR="1.0" MUF="1.0" PDF="325502" > PDF=325500 MemberID=2 </weight>
<weight id="1051" MUR="1.0" MUF="1.0" PDF="325503" > PDF=325500 MemberID=3 </weight>
<weight id="1052" MUR="1.0" MUF="1.0" PDF="325504" > PDF=325500 MemberID=4 </weight>
<weight id="1053" MUR="1.0" MUF="1.0" PDF="325505" > PDF=325500 MemberID=5 </weight>
<weight id="1054" MUR="1.0" MUF="1.0" PDF="325506" > PDF=325500 MemberID=6 </weight>
<weight id="1055" MUR="1.0" MUF="1.0" PDF="325507" > PDF=325500 MemberID=7 </weight>
<weight id="1056" MUR="1.0" MUF="1.0" PDF="325508" > PDF=325500 MemberID=8 </weight>
<weight id="1057" MUR="1.0" MUF="1.0" PDF="325509" > PDF=325500 MemberID=9 </weight>
<weight id="1058" MUR="1.0" MUF="1.0" PDF="325510" > PDF=325500 MemberID=10 </weight>
<weight id="1059" MUR="1.0" MUF="1.0" PDF="325511" > PDF=325500 MemberID=11 </weight>
<weight id="1060" MUR="1.0" MUF="1.0" PDF="325512" > PDF=325500 MemberID=12 </weight>
<weight id="1061" MUR="1.0" MUF="1.0" PDF="325513" > PDF=325500 MemberID=13 </weight>
<weight id="1062" MUR="1.0" MUF="1.0" PDF="325514" > PDF=325500 MemberID=14 </weight>
<weight id="1063" MUR="1.0" MUF="1.0" PDF="325515" > PDF=325500 MemberID=15 </weight>
<weight id="1064" MUR="1.0" MUF="1.0" PDF="325516" > PDF=325500 MemberID=16 </weight>
<weight id="1065" MUR="1.0" MUF="1.0" PDF="325517" > PDF=325500 MemberID=17 </weight>
<weight id="1066" MUR="1.0" MUF="1.0" PDF="325518" > PDF=325500 MemberID=18 </weight>
<weight id="1067" MUR="1.0" MUF="1.0" PDF="325519" > PDF=325500 MemberID=19 </weight>
<weight id="1068" MUR="1.0" MUF="1.0" PDF="325520" > PDF=325500 MemberID=20 </weight>
<weight id="1069" MUR="1.0" MUF="1.0" PDF="325521" > PDF=325500 MemberID=21 </weight>
<weight id="1070" MUR="1.0" MUF="1.0" PDF="325522" > PDF=325500 MemberID=22 </weight>
<weight id="1071" MUR="1.0" MUF="1.0" PDF="325523" > PDF=325500 MemberID=23 </weight>
<weight id="1072" MUR="1.0" MUF="1.0" PDF="325524" > PDF=325500 MemberID=24 </weight>
<weight id="1073" MUR="1.0" MUF="1.0" PDF="325525" > PDF=325500 MemberID=25 </weight>
<weight id="1074" MUR="1.0" MUF="1.0" PDF="325526" > PDF=325500 MemberID=26 </weight>
<weight id="1075" MUR="1.0" MUF="1.0" PDF="325527" > PDF=325500 MemberID=27 </weight>
<weight id="1076" MUR="1.0" MUF="1.0" PDF="325528" > PDF=325500 MemberID=28 </weight>
<weight id="1077" MUR="1.0" MUF="1.0" PDF="325529" > PDF=325500 MemberID=29 </weight>
<weight id="1078" MUR="1.0" MUF="1.0" PDF="325530" > PDF=325500 MemberID=30 </weight>
<weight id="1079" MUR="1.0" MUF="1.0" PDF="325531" > PDF=325500 MemberID=31 </weight>
<weight id="1080" MUR="1.0" MUF="1.0" PDF="325532" > PDF=325500 MemberID=32 </weight>
<weight id="1081" MUR="1.0" MUF="1.0" PDF="325533" > PDF=325500 MemberID=33 </weight>
<weight id="1082" MUR="1.0" MUF="1.0" PDF="325534" > PDF=325500 MemberID=34 </weight>
<weight id="1083" MUR="1.0" MUF="1.0" PDF="325535" > PDF=325500 MemberID=35 </weight>
<weight id="1084" MUR="1.0" MUF="1.0" PDF="325536" > PDF=325500 MemberID=36 </weight>
<weight id="1085" MUR="1.0" MUF="1.0" PDF="325537" > PDF=325500 MemberID=37 </weight>
<weight id="1086" MUR="1.0" MUF="1.0" PDF="325538" > PDF=325500 MemberID=38 </weight>
<weight id="1087" MUR="1.0" MUF="1.0" PDF="325539" > PDF=325500 MemberID=39 </weight>
<weight id="1088" MUR="1.0" MUF="1.0" PDF="325540" > PDF=325500 MemberID=40 </weight>
<weight id="1089" MUR="1.0" MUF="1.0" PDF="325541" > PDF=325500 MemberID=41 </weight>
<weight id="1090" MUR="1.0" MUF="1.0" PDF="325542" > PDF=325500 MemberID=42 </weight>
<weight id="1091" MUR="1.0" MUF="1.0" PDF="325543" > PDF=325500 MemberID=43 </weight>
<weight id="1092" MUR="1.0" MUF="1.0" PDF="325544" > PDF=325500 MemberID=44 </weight>
<weight id="1093" MUR="1.0" MUF="1.0" PDF="325545" > PDF=325500 MemberID=45 </weight>
<weight id="1094" MUR="1.0" MUF="1.0" PDF="325546" > PDF=325500 MemberID=46 </weight>
<weight id="1095" MUR="1.0" MUF="1.0" PDF="325547" > PDF=325500 MemberID=47 </weight>
<weight id="1096" MUR="1.0" MUF="1.0" PDF="325548" > PDF=325500 MemberID=48 </weight>
<weight id="1097" MUR="1.0" MUF="1.0" PDF="325549" > PDF=325500 MemberID=49 </weight>
<weight id="1098" MUR="1.0" MUF="1.0" PDF="325550" > PDF=325500 MemberID=50 </weight>
<weight id="1099" MUR="1.0" MUF="1.0" PDF="325551" > PDF=325500 MemberID=51 </weight>
<weight id="1100" MUR="1.0" MUF="1.0" PDF="325552" > PDF=325500 MemberID=52 </weight>
<weight id="1101" MUR="1.0" MUF="1.0" PDF="325553" > PDF=325500 MemberID=53 </weight>
<weight id="1102" MUR="1.0" MUF="1.0" PDF="325554" > PDF=325500 MemberID=54 </weight>
<weight id="1103" MUR="1.0" MUF="1.0" PDF="325555" > PDF=325500 MemberID=55 </weight>
<weight id="1104" MUR="1.0" MUF="1.0" PDF="325556" > PDF=325500 MemberID=56 </weight>
<weight id="1105" MUR="1.0" MUF="1.0" PDF="325557" > PDF=325500 MemberID=57 </weight>
<weight id="1106" MUR="1.0" MUF="1.0" PDF="325558" > PDF=325500 MemberID=58 </weight>
<weight id="1107" MUR="1.0" MUF="1.0" PDF="325559" > PDF=325500 MemberID=59 </weight>
<weight id="1108" MUR="1.0" MUF="1.0" PDF="325560" > PDF=325500 MemberID=60 </weight>
<weight id="1109" MUR="1.0" MUF="1.0" PDF="325561" > PDF=325500 MemberID=61 </weight>
<weight id="1110" MUR="1.0" MUF="1.0" PDF="325562" > PDF=325500 MemberID=62 </weight>
<weight id="1111" MUR="1.0" MUF="1.0" PDF="325563" > PDF=325500 MemberID=63 </weight>
<weight id="1112" MUR="1.0" MUF="1.0" PDF="325564" > PDF=325500 MemberID=64 </weight>
<weight id="1113" MUR="1.0" MUF="1.0" PDF="325565" > PDF=325500 MemberID=65 </weight>
<weight id="1114" MUR="1.0" MUF="1.0" PDF="325566" > PDF=325500 MemberID=66 </weight>
<weight id="1115" MUR="1.0" MUF="1.0" PDF="325567" > PDF=325500 MemberID=67 </weight>
<weight id="1116" MUR="1.0" MUF="1.0" PDF="325568" > PDF=325500 MemberID=68 </weight>
<weight id="1117" MUR="1.0" MUF="1.0" PDF="325569" > PDF=325500 MemberID=69 </weight>
<weight id="1118" MUR="1.0" MUF="1.0" PDF="325570" > PDF=325500 MemberID=70 </weight>
<weight id="1119" MUR="1.0" MUF="1.0" PDF="325571" > PDF=325500 MemberID=71 </weight>
<weight id="1120" MUR="1.0" MUF="1.0" PDF="325572" > PDF=325500 MemberID=72 </weight>
<weight id="1121" MUR="1.0" MUF="1.0" PDF="325573" > PDF=325500 MemberID=73 </weight>
<weight id="1122" MUR="1.0" MUF="1.0" PDF="325574" > PDF=325500 MemberID=74 </weight>
<weight id="1123" MUR="1.0" MUF="1.0" PDF="325575" > PDF=325500 MemberID=75 </weight>
<weight id="1124" MUR="1.0" MUF="1.0" PDF="325576" > PDF=325500 MemberID=76 </weight>
<weight id="1125" MUR="1.0" MUF="1.0" PDF="325577" > PDF=325500 MemberID=77 </weight>
<weight id="1126" MUR="1.0" MUF="1.0" PDF="325578" > PDF=325500 MemberID=78 </weight>
<weight id="1127" MUR="1.0" MUF="1.0" PDF="325579" > PDF=325500 MemberID=79 </weight>
<weight id="1128" MUR="1.0" MUF="1.0" PDF="325580" > PDF=325500 MemberID=80 </weight>
<weight id="1129" MUR="1.0" MUF="1.0" PDF="325581" > PDF=325500 MemberID=81 </weight>
<weight id="1130" MUR="1.0" MUF="1.0" PDF="325582" > PDF=325500 MemberID=82 </weight>
<weight id="1131" MUR="1.0" MUF="1.0" PDF="325583" > PDF=325500 MemberID=83 </weight>
<weight id="1132" MUR="1.0" MUF="1.0" PDF="325584" > PDF=325500 MemberID=84 </weight>
<weight id="1133" MUR="1.0" MUF="1.0" PDF="325585" > PDF=325500 MemberID=85 </weight>
<weight id="1134" MUR="1.0" MUF="1.0" PDF="325586" > PDF=325500 MemberID=86 </weight>
<weight id="1135" MUR="1.0" MUF="1.0" PDF="325587" > PDF=325500 MemberID=87 </weight>
<weight id="1136" MUR="1.0" MUF="1.0" PDF="325588" > PDF=325500 MemberID=88 </weight>
<weight id="1137" MUR="1.0" MUF="1.0" PDF="325589" > PDF=325500 MemberID=89 </weight>
<weight id="1138" MUR="1.0" MUF="1.0" PDF="325590" > PDF=325500 MemberID=90 </weight>
<weight id="1139" MUR="1.0" MUF="1.0" PDF="325591" > PDF=325500 MemberID=91 </weight>
<weight id="1140" MUR="1.0" MUF="1.0" PDF="325592" > PDF=325500 MemberID=92 </weight>
<weight id="1141" MUR="1.0" MUF="1.0" PDF="325593" > PDF=325500 MemberID=93 </weight>
<weight id="1142" MUR="1.0" MUF="1.0" PDF="325594" > PDF=325500 MemberID=94 </weight>
<weight id="1143" MUR="1.0" MUF="1.0" PDF="325595" > PDF=325500 MemberID=95 </weight>
<weight id="1144" MUR="1.0" MUF="1.0" PDF="325596" > PDF=325500 MemberID=96 </weight>
<weight id="1145" MUR="1.0" MUF="1.0" PDF="325597" > PDF=325500 MemberID=97 </weight>
<weight id="1146" MUR="1.0" MUF="1.0" PDF="325598" > PDF=325500 MemberID=98 </weight>
<weight id="1147" MUR="1.0" MUF="1.0" PDF="325599" > PDF=325500 MemberID=99 </weight>
<weight id="1148" MUR="1.0" MUF="1.0" PDF="325600" > PDF=325500 MemberID=100 </weight>
</weightgroup> # PDFSET -> PDFSET
<weightgroup name="NNPDF31_nnlo_as_0118_nf_4" combine="replicas"> # 320900: NNPDF3.1 NNLO global fit, nf=4. mem=0 ; average on replicas; mem=1-100 ; PDF replicas
<weight id="1149" MUR="1.0" MUF="1.0" PDF="320900" > PDF=320900 MemberID=0 </weight>
<weight id="1150" MUR="1.0" MUF="1.0" PDF="320901" > PDF=320900 MemberID=1 </weight>
<weight id="1151" MUR="1.0" MUF="1.0" PDF="320902" > PDF=320900 MemberID=2 </weight>
<weight id="1152" MUR="1.0" MUF="1.0" PDF="320903" > PDF=320900 MemberID=3 </weight>
<weight id="1153" MUR="1.0" MUF="1.0" PDF="320904" > PDF=320900 MemberID=4 </weight>
<weight id="1154" MUR="1.0" MUF="1.0" PDF="320905" > PDF=320900 MemberID=5 </weight>
<weight id="1155" MUR="1.0" MUF="1.0" PDF="320906" > PDF=320900 MemberID=6 </weight>
<weight id="1156" MUR="1.0" MUF="1.0" PDF="320907" > PDF=320900 MemberID=7 </weight>
<weight id="1157" MUR="1.0" MUF="1.0" PDF="320908" > PDF=320900 MemberID=8 </weight>
<weight id="1158" MUR="1.0" MUF="1.0" PDF="320909" > PDF=320900 MemberID=9 </weight>
<weight id="1159" MUR="1.0" MUF="1.0" PDF="320910" > PDF=320900 MemberID=10 </weight>
<weight id="1160" MUR="1.0" MUF="1.0" PDF="320911" > PDF=320900 MemberID=11 </weight>
<weight id="1161" MUR="1.0" MUF="1.0" PDF="320912" > PDF=320900 MemberID=12 </weight>
<weight id="1162" MUR="1.0" MUF="1.0" PDF="320913" > PDF=320900 MemberID=13 </weight>
<weight id="1163" MUR="1.0" MUF="1.0" PDF="320914" > PDF=320900 MemberID=14 </weight>
<weight id="1164" MUR="1.0" MUF="1.0" PDF="320915" > PDF=320900 MemberID=15 </weight>
<weight id="1165" MUR="1.0" MUF="1.0" PDF="320916" > PDF=320900 MemberID=16 </weight>
<weight id="1166" MUR="1.0" MUF="1.0" PDF="320917" > PDF=320900 MemberID=17 </weight>
<weight id="1167" MUR="1.0" MUF="1.0" PDF="320918" > PDF=320900 MemberID=18 </weight>
<weight id="1168" MUR="1.0" MUF="1.0" PDF="320919" > PDF=320900 MemberID=19 </weight>
<weight id="1169" MUR="1.0" MUF="1.0" PDF="320920" > PDF=320900 MemberID=20 </weight>
<weight id="1170" MUR="1.0" MUF="1.0" PDF="320921" > PDF=320900 MemberID=21 </weight>
<weight id="1171" MUR="1.0" MUF="1.0" PDF="320922" > PDF=320900 MemberID=22 </weight>
<weight id="1172" MUR="1.0" MUF="1.0" PDF="320923" > PDF=320900 MemberID=23 </weight>
<weight id="1173" MUR="1.0" MUF="1.0" PDF="320924" > PDF=320900 MemberID=24 </weight>
<weight id="1174" MUR="1.0" MUF="1.0" PDF="320925" > PDF=320900 MemberID=25 </weight>
<weight id="1175" MUR="1.0" MUF="1.0" PDF="320926" > PDF=320900 MemberID=26 </weight>
<weight id="1176" MUR="1.0" MUF="1.0" PDF="320927" > PDF=320900 MemberID=27 </weight>
<weight id="1177" MUR="1.0" MUF="1.0" PDF="320928" > PDF=320900 MemberID=28 </weight>
<weight id="1178" MUR="1.0" MUF="1.0" PDF="320929" > PDF=320900 MemberID=29 </weight>
<weight id="1179" MUR="1.0" MUF="1.0" PDF="320930" > PDF=320900 MemberID=30 </weight>
<weight id="1180" MUR="1.0" MUF="1.0" PDF="320931" > PDF=320900 MemberID=31 </weight>
<weight id="1181" MUR="1.0" MUF="1.0" PDF="320932" > PDF=320900 MemberID=32 </weight>
<weight id="1182" MUR="1.0" MUF="1.0" PDF="320933" > PDF=320900 MemberID=33 </weight>
<weight id="1183" MUR="1.0" MUF="1.0" PDF="320934" > PDF=320900 MemberID=34 </weight>
<weight id="1184" MUR="1.0" MUF="1.0" PDF="320935" > PDF=320900 MemberID=35 </weight>
<weight id="1185" MUR="1.0" MUF="1.0" PDF="320936" > PDF=320900 MemberID=36 </weight>
<weight id="1186" MUR="1.0" MUF="1.0" PDF="320937" > PDF=320900 MemberID=37 </weight>
<weight id="1187" MUR="1.0" MUF="1.0" PDF="320938" > PDF=320900 MemberID=38 </weight>
<weight id="1188" MUR="1.0" MUF="1.0" PDF="320939" > PDF=320900 MemberID=39 </weight>
<weight id="1189" MUR="1.0" MUF="1.0" PDF="320940" > PDF=320900 MemberID=40 </weight>
<weight id="1190" MUR="1.0" MUF="1.0" PDF="320941" > PDF=320900 MemberID=41 </weight>
<weight id="1191" MUR="1.0" MUF="1.0" PDF="320942" > PDF=320900 MemberID=42 </weight>
<weight id="1192" MUR="1.0" MUF="1.0" PDF="320943" > PDF=320900 MemberID=43 </weight>
<weight id="1193" MUR="1.0" MUF="1.0" PDF="320944" > PDF=320900 MemberID=44 </weight>
<weight id="1194" MUR="1.0" MUF="1.0" PDF="320945" > PDF=320900 MemberID=45 </weight>
<weight id="1195" MUR="1.0" MUF="1.0" PDF="320946" > PDF=320900 MemberID=46 </weight>
<weight id="1196" MUR="1.0" MUF="1.0" PDF="320947" > PDF=320900 MemberID=47 </weight>
<weight id="1197" MUR="1.0" MUF="1.0" PDF="320948" > PDF=320900 MemberID=48 </weight>
<weight id="1198" MUR="1.0" MUF="1.0" PDF="320949" > PDF=320900 MemberID=49 </weight>
<weight id="1199" MUR="1.0" MUF="1.0" PDF="320950" > PDF=320900 MemberID=50 </weight>
<weight id="1200" MUR="1.0" MUF="1.0" PDF="320951" > PDF=320900 MemberID=51 </weight>
<weight id="1201" MUR="1.0" MUF="1.0" PDF="320952" > PDF=320900 MemberID=52 </weight>
<weight id="1202" MUR="1.0" MUF="1.0" PDF="320953" > PDF=320900 MemberID=53 </weight>
<weight id="1203" MUR="1.0" MUF="1.0" PDF="320954" > PDF=320900 MemberID=54 </weight>
<weight id="1204" MUR="1.0" MUF="1.0" PDF="320955" > PDF=320900 MemberID=55 </weight>
<weight id="1205" MUR="1.0" MUF="1.0" PDF="320956" > PDF=320900 MemberID=56 </weight>
<weight id="1206" MUR="1.0" MUF="1.0" PDF="320957" > PDF=320900 MemberID=57 </weight>
<weight id="1207" MUR="1.0" MUF="1.0" PDF="320958" > PDF=320900 MemberID=58 </weight>
<weight id="1208" MUR="1.0" MUF="1.0" PDF="320959" > PDF=320900 MemberID=59 </weight>
<weight id="1209" MUR="1.0" MUF="1.0" PDF="320960" > PDF=320900 MemberID=60 </weight>
<weight id="1210" MUR="1.0" MUF="1.0" PDF="320961" > PDF=320900 MemberID=61 </weight>
<weight id="1211" MUR="1.0" MUF="1.0" PDF="320962" > PDF=320900 MemberID=62 </weight>
<weight id="1212" MUR="1.0" MUF="1.0" PDF="320963" > PDF=320900 MemberID=63 </weight>
<weight id="1213" MUR="1.0" MUF="1.0" PDF="320964" > PDF=320900 MemberID=64 </weight>
<weight id="1214" MUR="1.0" MUF="1.0" PDF="320965" > PDF=320900 MemberID=65 </weight>
<weight id="1215" MUR="1.0" MUF="1.0" PDF="320966" > PDF=320900 MemberID=66 </weight>
<weight id="1216" MUR="1.0" MUF="1.0" PDF="320967" > PDF=320900 MemberID=67 </weight>
<weight id="1217" MUR="1.0" MUF="1.0" PDF="320968" > PDF=320900 MemberID=68 </weight>
<weight id="1218" MUR="1.0" MUF="1.0" PDF="320969" > PDF=320900 MemberID=69 </weight>
<weight id="1219" MUR="1.0" MUF="1.0" PDF="320970" > PDF=320900 MemberID=70 </weight>
<weight id="1220" MUR="1.0" MUF="1.0" PDF="320971" > PDF=320900 MemberID=71 </weight>
<weight id="1221" MUR="1.0" MUF="1.0" PDF="320972" > PDF=320900 MemberID=72 </weight>
<weight id="1222" MUR="1.0" MUF="1.0" PDF="320973" > PDF=320900 MemberID=73 </weight>
<weight id="1223" MUR="1.0" MUF="1.0" PDF="320974" > PDF=320900 MemberID=74 </weight>
<weight id="1224" MUR="1.0" MUF="1.0" PDF="320975" > PDF=320900 MemberID=75 </weight>
<weight id="1225" MUR="1.0" MUF="1.0" PDF="320976" > PDF=320900 MemberID=76 </weight>
<weight id="1226" MUR="1.0" MUF="1.0" PDF="320977" > PDF=320900 MemberID=77 </weight>
<weight id="1227" MUR="1.0" MUF="1.0" PDF="320978" > PDF=320900 MemberID=78 </weight>
<weight id="1228" MUR="1.0" MUF="1.0" PDF="320979" > PDF=320900 MemberID=79 </weight>
<weight id="1229" MUR="1.0" MUF="1.0" PDF="320980" > PDF=320900 MemberID=80 </weight>
<weight id="1230" MUR="1.0" MUF="1.0" PDF="320981" > PDF=320900 MemberID=81 </weight>
<weight id="1231" MUR="1.0" MUF="1.0" PDF="320982" > PDF=320900 MemberID=82 </weight>
<weight id="1232" MUR="1.0" MUF="1.0" PDF="320983" > PDF=320900 MemberID=83 </weight>
<weight id="1233" MUR="1.0" MUF="1.0" PDF="320984" > PDF=320900 MemberID=84 </weight>
<weight id="1234" MUR="1.0" MUF="1.0" PDF="320985" > PDF=320900 MemberID=85 </weight>
<weight id="1235" MUR="1.0" MUF="1.0" PDF="320986" > PDF=320900 MemberID=86 </weight>
<weight id="1236" MUR="1.0" MUF="1.0" PDF="320987" > PDF=320900 MemberID=87 </weight>
<weight id="1237" MUR="1.0" MUF="1.0" PDF="320988" > PDF=320900 MemberID=88 </weight>
<weight id="1238" MUR="1.0" MUF="1.0" PDF="320989" > PDF=320900 MemberID=89 </weight>
<weight id="1239" MUR="1.0" MUF="1.0" PDF="320990" > PDF=320900 MemberID=90 </weight>
<weight id="1240" MUR="1.0" MUF="1.0" PDF="320991" > PDF=320900 MemberID=91 </weight>
<weight id="1241" MUR="1.0" MUF="1.0" PDF="320992" > PDF=320900 MemberID=92 </weight>
<weight id="1242" MUR="1.0" MUF="1.0" PDF="320993" > PDF=320900 MemberID=93 </weight>
<weight id="1243" MUR="1.0" MUF="1.0" PDF="320994" > PDF=320900 MemberID=94 </weight>
<weight id="1244" MUR="1.0" MUF="1.0" PDF="320995" > PDF=320900 MemberID=95 </weight>
<weight id="1245" MUR="1.0" MUF="1.0" PDF="320996" > PDF=320900 MemberID=96 </weight>
<weight id="1246" MUR="1.0" MUF="1.0" PDF="320997" > PDF=320900 MemberID=97 </weight>
<weight id="1247" MUR="1.0" MUF="1.0" PDF="320998" > PDF=320900 MemberID=98 </weight>
<weight id="1248" MUR="1.0" MUF="1.0" PDF="320999" > PDF=320900 MemberID=99 </weight>
<weight id="1249" MUR="1.0" MUF="1.0" PDF="321000" > PDF=320900 MemberID=100 </weight>
</weightgroup> # PDFSET -> PDFSET
<weightgroup name="CT10nlo_nf4" combine="unknown"> # 11082: CT10 NLO PDF fixed 4-flavour fits using the standard CTEQ PDF evolution but using the HOPPET alphas_s running solution. NEW CT12 grid type. Excluding the D0 Run-II W asymmetry data. mem=0 ; mem=0 ; NF4 high scale Q=m_Z=91.190 GeV; mem=1 ; NF4 low scale  Q=m_tau=1.778 GeV
<weight id="1250" MUR="1.0" MUF="1.0" PDF="11082" > PDF=11082 MemberID=0 </weight>
<weight id="1251" MUR="1.0" MUF="1.0" PDF="11083" > PDF=11082 MemberID=1 </weight>
</weightgroup> # PDFSET -> PDF
<weight id="1252" MUR="1.0" MUF="1.0" PDF="13091" > PDF=13091 MemberID=0 </weight>
<weight id="1253" MUR="1.0" MUF="1.0" PDF="13191" > PDF=13191 MemberID=0 </weight>
<weight id="1254" MUR="1.0" MUF="1.0" PDF="13202" > PDF=13202 MemberID=0 </weight>
<weightgroup name="MSTW2008lo68cl_nf4" combine="hessian"> # 23100: MSTW 2008 LO (68% C.L.) evolved with 4 flavours maximum.  This set has 41 member PDFs.  mem=0 ; central value; mem=1-40 ; 20 eigenvectors (+/- directions).  http://mstwpdf.hepforge.org
<weight id="1255" MUR="1.0" MUF="1.0" PDF="23100" > PDF=23100 MemberID=0 </weight>
<weight id="1256" MUR="1.0" MUF="1.0" PDF="23101" > PDF=23100 MemberID=1 </weight>
<weight id="1257" MUR="1.0" MUF="1.0" PDF="23102" > PDF=23100 MemberID=2 </weight>
<weight id="1258" MUR="1.0" MUF="1.0" PDF="23103" > PDF=23100 MemberID=3 </weight>
<weight id="1259" MUR="1.0" MUF="1.0" PDF="23104" > PDF=23100 MemberID=4 </weight>
<weight id="1260" MUR="1.0" MUF="1.0" PDF="23105" > PDF=23100 MemberID=5 </weight>
<weight id="1261" MUR="1.0" MUF="1.0" PDF="23106" > PDF=23100 MemberID=6 </weight>
<weight id="1262" MUR="1.0" MUF="1.0" PDF="23107" > PDF=23100 MemberID=7 </weight>
<weight id="1263" MUR="1.0" MUF="1.0" PDF="23108" > PDF=23100 MemberID=8 </weight>
<weight id="1264" MUR="1.0" MUF="1.0" PDF="23109" > PDF=23100 MemberID=9 </weight>
<weight id="1265" MUR="1.0" MUF="1.0" PDF="23110" > PDF=23100 MemberID=10 </weight>
<weight id="1266" MUR="1.0" MUF="1.0" PDF="23111" > PDF=23100 MemberID=11 </weight>
<weight id="1267" MUR="1.0" MUF="1.0" PDF="23112" > PDF=23100 MemberID=12 </weight>
<weight id="1268" MUR="1.0" MUF="1.0" PDF="23113" > PDF=23100 MemberID=13 </weight>
<weight id="1269" MUR="1.0" MUF="1.0" PDF="23114" > PDF=23100 MemberID=14 </weight>
<weight id="1270" MUR="1.0" MUF="1.0" PDF="23115" > PDF=23100 MemberID=15 </weight>
<weight id="1271" MUR="1.0" MUF="1.0" PDF="23116" > PDF=23100 MemberID=16 </weight>
<weight id="1272" MUR="1.0" MUF="1.0" PDF="23117" > PDF=23100 MemberID=17 </weight>
<weight id="1273" MUR="1.0" MUF="1.0" PDF="23118" > PDF=23100 MemberID=18 </weight>
<weight id="1274" MUR="1.0" MUF="1.0" PDF="23119" > PDF=23100 MemberID=19 </weight>
<weight id="1275" MUR="1.0" MUF="1.0" PDF="23120" > PDF=23100 MemberID=20 </weight>
<weight id="1276" MUR="1.0" MUF="1.0" PDF="23121" > PDF=23100 MemberID=21 </weight>
<weight id="1277" MUR="1.0" MUF="1.0" PDF="23122" > PDF=23100 MemberID=22 </weight>
<weight id="1278" MUR="1.0" MUF="1.0" PDF="23123" > PDF=23100 MemberID=23 </weight>
<weight id="1279" MUR="1.0" MUF="1.0" PDF="23124" > PDF=23100 MemberID=24 </weight>
<weight id="1280" MUR="1.0" MUF="1.0" PDF="23125" > PDF=23100 MemberID=25 </weight>
<weight id="1281" MUR="1.0" MUF="1.0" PDF="23126" > PDF=23100 MemberID=26 </weight>
<weight id="1282" MUR="1.0" MUF="1.0" PDF="23127" > PDF=23100 MemberID=27 </weight>
<weight id="1283" MUR="1.0" MUF="1.0" PDF="23128" > PDF=23100 MemberID=28 </weight>
<weight id="1284" MUR="1.0" MUF="1.0" PDF="23129" > PDF=23100 MemberID=29 </weight>
<weight id="1285" MUR="1.0" MUF="1.0" PDF="23130" > PDF=23100 MemberID=30 </weight>
<weight id="1286" MUR="1.0" MUF="1.0" PDF="23131" > PDF=23100 MemberID=31 </weight>
<weight id="1287" MUR="1.0" MUF="1.0" PDF="23132" > PDF=23100 MemberID=32 </weight>
<weight id="1288" MUR="1.0" MUF="1.0" PDF="23133" > PDF=23100 MemberID=33 </weight>
<weight id="1289" MUR="1.0" MUF="1.0" PDF="23134" > PDF=23100 MemberID=34 </weight>
<weight id="1290" MUR="1.0" MUF="1.0" PDF="23135" > PDF=23100 MemberID=35 </weight>
<weight id="1291" MUR="1.0" MUF="1.0" PDF="23136" > PDF=23100 MemberID=36 </weight>
<weight id="1292" MUR="1.0" MUF="1.0" PDF="23137" > PDF=23100 MemberID=37 </weight>
<weight id="1293" MUR="1.0" MUF="1.0" PDF="23138" > PDF=23100 MemberID=38 </weight>
<weight id="1294" MUR="1.0" MUF="1.0" PDF="23139" > PDF=23100 MemberID=39 </weight>
<weight id="1295" MUR="1.0" MUF="1.0" PDF="23140" > PDF=23100 MemberID=40 </weight>
</weightgroup> # PDFSET -> PDFSET
<weightgroup name="MSTW2008nlo68cl_nf4" combine="hessian"> # 23300: MSTW 2008 NLO (68% C.L.) evolved with 4 flavours maximum.  This set has 41 member PDFs.  mem=0 ; central value; mem=1-40 ; 20 eigenvectors (+/- directions).  http://mstwpdf.hepforge.org
<weight id="1296" MUR="1.0" MUF="1.0" PDF="23300" > PDF=23300 MemberID=0 </weight>
<weight id="1297" MUR="1.0" MUF="1.0" PDF="23301" > PDF=23300 MemberID=1 </weight>
<weight id="1298" MUR="1.0" MUF="1.0" PDF="23302" > PDF=23300 MemberID=2 </weight>
<weight id="1299" MUR="1.0" MUF="1.0" PDF="23303" > PDF=23300 MemberID=3 </weight>
<weight id="1300" MUR="1.0" MUF="1.0" PDF="23304" > PDF=23300 MemberID=4 </weight>
<weight id="1301" MUR="1.0" MUF="1.0" PDF="23305" > PDF=23300 MemberID=5 </weight>
<weight id="1302" MUR="1.0" MUF="1.0" PDF="23306" > PDF=23300 MemberID=6 </weight>
<weight id="1303" MUR="1.0" MUF="1.0" PDF="23307" > PDF=23300 MemberID=7 </weight>
<weight id="1304" MUR="1.0" MUF="1.0" PDF="23308" > PDF=23300 MemberID=8 </weight>
<weight id="1305" MUR="1.0" MUF="1.0" PDF="23309" > PDF=23300 MemberID=9 </weight>
<weight id="1306" MUR="1.0" MUF="1.0" PDF="23310" > PDF=23300 MemberID=10 </weight>
<weight id="1307" MUR="1.0" MUF="1.0" PDF="23311" > PDF=23300 MemberID=11 </weight>
<weight id="1308" MUR="1.0" MUF="1.0" PDF="23312" > PDF=23300 MemberID=12 </weight>
<weight id="1309" MUR="1.0" MUF="1.0" PDF="23313" > PDF=23300 MemberID=13 </weight>
<weight id="1310" MUR="1.0" MUF="1.0" PDF="23314" > PDF=23300 MemberID=14 </weight>
<weight id="1311" MUR="1.0" MUF="1.0" PDF="23315" > PDF=23300 MemberID=15 </weight>
<weight id="1312" MUR="1.0" MUF="1.0" PDF="23316" > PDF=23300 MemberID=16 </weight>
<weight id="1313" MUR="1.0" MUF="1.0" PDF="23317" > PDF=23300 MemberID=17 </weight>
<weight id="1314" MUR="1.0" MUF="1.0" PDF="23318" > PDF=23300 MemberID=18 </weight>
<weight id="1315" MUR="1.0" MUF="1.0" PDF="23319" > PDF=23300 MemberID=19 </weight>
<weight id="1316" MUR="1.0" MUF="1.0" PDF="23320" > PDF=23300 MemberID=20 </weight>
<weight id="1317" MUR="1.0" MUF="1.0" PDF="23321" > PDF=23300 MemberID=21 </weight>
<weight id="1318" MUR="1.0" MUF="1.0" PDF="23322" > PDF=23300 MemberID=22 </weight>
<weight id="1319" MUR="1.0" MUF="1.0" PDF="23323" > PDF=23300 MemberID=23 </weight>
<weight id="1320" MUR="1.0" MUF="1.0" PDF="23324" > PDF=23300 MemberID=24 </weight>
<weight id="1321" MUR="1.0" MUF="1.0" PDF="23325" > PDF=23300 MemberID=25 </weight>
<weight id="1322" MUR="1.0" MUF="1.0" PDF="23326" > PDF=23300 MemberID=26 </weight>
<weight id="1323" MUR="1.0" MUF="1.0" PDF="23327" > PDF=23300 MemberID=27 </weight>
<weight id="1324" MUR="1.0" MUF="1.0" PDF="23328" > PDF=23300 MemberID=28 </weight>
<weight id="1325" MUR="1.0" MUF="1.0" PDF="23329" > PDF=23300 MemberID=29 </weight>
<weight id="1326" MUR="1.0" MUF="1.0" PDF="23330" > PDF=23300 MemberID=30 </weight>
<weight id="1327" MUR="1.0" MUF="1.0" PDF="23331" > PDF=23300 MemberID=31 </weight>
<weight id="1328" MUR="1.0" MUF="1.0" PDF="23332" > PDF=23300 MemberID=32 </weight>
<weight id="1329" MUR="1.0" MUF="1.0" PDF="23333" > PDF=23300 MemberID=33 </weight>
<weight id="1330" MUR="1.0" MUF="1.0" PDF="23334" > PDF=23300 MemberID=34 </weight>
<weight id="1331" MUR="1.0" MUF="1.0" PDF="23335" > PDF=23300 MemberID=35 </weight>
<weight id="1332" MUR="1.0" MUF="1.0" PDF="23336" > PDF=23300 MemberID=36 </weight>
<weight id="1333" MUR="1.0" MUF="1.0" PDF="23337" > PDF=23300 MemberID=37 </weight>
<weight id="1334" MUR="1.0" MUF="1.0" PDF="23338" > PDF=23300 MemberID=38 </weight>
<weight id="1335" MUR="1.0" MUF="1.0" PDF="23339" > PDF=23300 MemberID=39 </weight>
<weight id="1336" MUR="1.0" MUF="1.0" PDF="23340" > PDF=23300 MemberID=40 </weight>
</weightgroup> # PDFSET -> PDFSET
<weightgroup name="MSTW2008nlo_mbrange_nf4" combine="unknown"> # 23490: MSTW 2008 NLO (fits for range of m_b values, evolve with 4 flavours maximum).  This set has 7 member PDFs.  mem=0 ; default m_b = 4.75 GeV; mem=1-6 ; m_b = 4.00, 4.25, 4.50, 5.00, 5.25, 5.50 GeV.  http://mstwpdf.hepforge.org
<weight id="1337" MUR="1.0" MUF="1.0" PDF="23490" > PDF=23490 MemberID=0 </weight>
<weight id="1338" MUR="1.0" MUF="1.0" PDF="23491" > PDF=23490 MemberID=1 </weight>
<weight id="1339" MUR="1.0" MUF="1.0" PDF="23492" > PDF=23490 MemberID=2 </weight>
<weight id="1340" MUR="1.0" MUF="1.0" PDF="23493" > PDF=23490 MemberID=3 </weight>
<weight id="1341" MUR="1.0" MUF="1.0" PDF="23494" > PDF=23490 MemberID=4 </weight>
<weight id="1342" MUR="1.0" MUF="1.0" PDF="23495" > PDF=23490 MemberID=5 </weight>
<weight id="1343" MUR="1.0" MUF="1.0" PDF="23496" > PDF=23490 MemberID=6 </weight>
</weightgroup> # PDFSET -> PDFSET
<weightgroup name="MSTW2008nnlo68cl_nf4" combine="hessian"> # 23600: MSTW 2008 NNLO (68% C.L.) evolved with 4 flavours maximum.  This set has 41 member PDFs.  mem=0 ; central value; mem=1-40 ; 20 eigenvectors (+/- directions).  http://mstwpdf.hepforge.org
<weight id="1344" MUR="1.0" MUF="1.0" PDF="23600" > PDF=23600 MemberID=0 </weight>
<weight id="1345" MUR="1.0" MUF="1.0" PDF="23601" > PDF=23600 MemberID=1 </weight>
<weight id="1346" MUR="1.0" MUF="1.0" PDF="23602" > PDF=23600 MemberID=2 </weight>
<weight id="1347" MUR="1.0" MUF="1.0" PDF="23603" > PDF=23600 MemberID=3 </weight>
<weight id="1348" MUR="1.0" MUF="1.0" PDF="23604" > PDF=23600 MemberID=4 </weight>
<weight id="1349" MUR="1.0" MUF="1.0" PDF="23605" > PDF=23600 MemberID=5 </weight>
<weight id="1350" MUR="1.0" MUF="1.0" PDF="23606" > PDF=23600 MemberID=6 </weight>
<weight id="1351" MUR="1.0" MUF="1.0" PDF="23607" > PDF=23600 MemberID=7 </weight>
<weight id="1352" MUR="1.0" MUF="1.0" PDF="23608" > PDF=23600 MemberID=8 </weight>
<weight id="1353" MUR="1.0" MUF="1.0" PDF="23609" > PDF=23600 MemberID=9 </weight>
<weight id="1354" MUR="1.0" MUF="1.0" PDF="23610" > PDF=23600 MemberID=10 </weight>
<weight id="1355" MUR="1.0" MUF="1.0" PDF="23611" > PDF=23600 MemberID=11 </weight>
<weight id="1356" MUR="1.0" MUF="1.0" PDF="23612" > PDF=23600 MemberID=12 </weight>
<weight id="1357" MUR="1.0" MUF="1.0" PDF="23613" > PDF=23600 MemberID=13 </weight>
<weight id="1358" MUR="1.0" MUF="1.0" PDF="23614" > PDF=23600 MemberID=14 </weight>
<weight id="1359" MUR="1.0" MUF="1.0" PDF="23615" > PDF=23600 MemberID=15 </weight>
<weight id="1360" MUR="1.0" MUF="1.0" PDF="23616" > PDF=23600 MemberID=16 </weight>
<weight id="1361" MUR="1.0" MUF="1.0" PDF="23617" > PDF=23600 MemberID=17 </weight>
<weight id="1362" MUR="1.0" MUF="1.0" PDF="23618" > PDF=23600 MemberID=18 </weight>
<weight id="1363" MUR="1.0" MUF="1.0" PDF="23619" > PDF=23600 MemberID=19 </weight>
<weight id="1364" MUR="1.0" MUF="1.0" PDF="23620" > PDF=23600 MemberID=20 </weight>
<weight id="1365" MUR="1.0" MUF="1.0" PDF="23621" > PDF=23600 MemberID=21 </weight>
<weight id="1366" MUR="1.0" MUF="1.0" PDF="23622" > PDF=23600 MemberID=22 </weight>
<weight id="1367" MUR="1.0" MUF="1.0" PDF="23623" > PDF=23600 MemberID=23 </weight>
<weight id="1368" MUR="1.0" MUF="1.0" PDF="23624" > PDF=23600 MemberID=24 </weight>
<weight id="1369" MUR="1.0" MUF="1.0" PDF="23625" > PDF=23600 MemberID=25 </weight>
<weight id="1370" MUR="1.0" MUF="1.0" PDF="23626" > PDF=23600 MemberID=26 </weight>
<weight id="1371" MUR="1.0" MUF="1.0" PDF="23627" > PDF=23600 MemberID=27 </weight>
<weight id="1372" MUR="1.0" MUF="1.0" PDF="23628" > PDF=23600 MemberID=28 </weight>
<weight id="1373" MUR="1.0" MUF="1.0" PDF="23629" > PDF=23600 MemberID=29 </weight>
<weight id="1374" MUR="1.0" MUF="1.0" PDF="23630" > PDF=23600 MemberID=30 </weight>
<weight id="1375" MUR="1.0" MUF="1.0" PDF="23631" > PDF=23600 MemberID=31 </weight>
<weight id="1376" MUR="1.0" MUF="1.0" PDF="23632" > PDF=23600 MemberID=32 </weight>
<weight id="1377" MUR="1.0" MUF="1.0" PDF="23633" > PDF=23600 MemberID=33 </weight>
<weight id="1378" MUR="1.0" MUF="1.0" PDF="23634" > PDF=23600 MemberID=34 </weight>
<weight id="1379" MUR="1.0" MUF="1.0" PDF="23635" > PDF=23600 MemberID=35 </weight>
<weight id="1380" MUR="1.0" MUF="1.0" PDF="23636" > PDF=23600 MemberID=36 </weight>
<weight id="1381" MUR="1.0" MUF="1.0" PDF="23637" > PDF=23600 MemberID=37 </weight>
<weight id="1382" MUR="1.0" MUF="1.0" PDF="23638" > PDF=23600 MemberID=38 </weight>
<weight id="1383" MUR="1.0" MUF="1.0" PDF="23639" > PDF=23600 MemberID=39 </weight>
<weight id="1384" MUR="1.0" MUF="1.0" PDF="23640" > PDF=23600 MemberID=40 </weight>
</weightgroup> # PDFSET -> PDFSET
<weightgroup name="MSTW2008nnlo_mbrange_nf4" combine="unknown"> # 23790: MSTW 2008 NNLO (fits for range of m_b values, evolve with 4 flavours maximum).  This set has 7 member PDFs.  mem=0 ; default m_b = 4.75 GeV; mem=1-6 ; m_b = 4.00, 4.25, 4.50, 5.00, 5.25, 5.50 GeV.  http://mstwpdf.hepforge.org
<weight id="1385" MUR="1.0" MUF="1.0" PDF="23790" > PDF=23790 MemberID=0 </weight>
<weight id="1386" MUR="1.0" MUF="1.0" PDF="23791" > PDF=23790 MemberID=1 </weight>
<weight id="1387" MUR="1.0" MUF="1.0" PDF="23792" > PDF=23790 MemberID=2 </weight>
<weight id="1388" MUR="1.0" MUF="1.0" PDF="23793" > PDF=23790 MemberID=3 </weight>
<weight id="1389" MUR="1.0" MUF="1.0" PDF="23794" > PDF=23790 MemberID=4 </weight>
<weight id="1390" MUR="1.0" MUF="1.0" PDF="23795" > PDF=23790 MemberID=5 </weight>
<weight id="1391" MUR="1.0" MUF="1.0" PDF="23796" > PDF=23790 MemberID=6 </weight>
</weightgroup> # PDFSET -> PDFSET
<weightgroup name="MMHT2014nlo68cl_nf4" combine="hessian"> # 25410: MMHT 2014 NLO (68% C.L.): evolve with 4 flavours maximum. This set has 51 member PDFs. mem=0 --.gt. central value; mem=1-50 --.gt. 20 eigenvector sets (+/- directions). Website: www.hep.ucl.ac.uk/mmht
<weight id="1392" MUR="1.0" MUF="1.0" PDF="25410" > PDF=25410 MemberID=0 </weight>
<weight id="1393" MUR="1.0" MUF="1.0" PDF="25411" > PDF=25410 MemberID=1 </weight>
<weight id="1394" MUR="1.0" MUF="1.0" PDF="25412" > PDF=25410 MemberID=2 </weight>
<weight id="1395" MUR="1.0" MUF="1.0" PDF="25413" > PDF=25410 MemberID=3 </weight>
<weight id="1396" MUR="1.0" MUF="1.0" PDF="25414" > PDF=25410 MemberID=4 </weight>
<weight id="1397" MUR="1.0" MUF="1.0" PDF="25415" > PDF=25410 MemberID=5 </weight>
<weight id="1398" MUR="1.0" MUF="1.0" PDF="25416" > PDF=25410 MemberID=6 </weight>
<weight id="1399" MUR="1.0" MUF="1.0" PDF="25417" > PDF=25410 MemberID=7 </weight>
<weight id="1400" MUR="1.0" MUF="1.0" PDF="25418" > PDF=25410 MemberID=8 </weight>
<weight id="1401" MUR="1.0" MUF="1.0" PDF="25419" > PDF=25410 MemberID=9 </weight>
<weight id="1402" MUR="1.0" MUF="1.0" PDF="25420" > PDF=25410 MemberID=10 </weight>
<weight id="1403" MUR="1.0" MUF="1.0" PDF="25421" > PDF=25410 MemberID=11 </weight>
<weight id="1404" MUR="1.0" MUF="1.0" PDF="25422" > PDF=25410 MemberID=12 </weight>
<weight id="1405" MUR="1.0" MUF="1.0" PDF="25423" > PDF=25410 MemberID=13 </weight>
<weight id="1406" MUR="1.0" MUF="1.0" PDF="25424" > PDF=25410 MemberID=14 </weight>
<weight id="1407" MUR="1.0" MUF="1.0" PDF="25425" > PDF=25410 MemberID=15 </weight>
<weight id="1408" MUR="1.0" MUF="1.0" PDF="25426" > PDF=25410 MemberID=16 </weight>
<weight id="1409" MUR="1.0" MUF="1.0" PDF="25427" > PDF=25410 MemberID=17 </weight>
<weight id="1410" MUR="1.0" MUF="1.0" PDF="25428" > PDF=25410 MemberID=18 </weight>
<weight id="1411" MUR="1.0" MUF="1.0" PDF="25429" > PDF=25410 MemberID=19 </weight>
<weight id="1412" MUR="1.0" MUF="1.0" PDF="25430" > PDF=25410 MemberID=20 </weight>
<weight id="1413" MUR="1.0" MUF="1.0" PDF="25431" > PDF=25410 MemberID=21 </weight>
<weight id="1414" MUR="1.0" MUF="1.0" PDF="25432" > PDF=25410 MemberID=22 </weight>
<weight id="1415" MUR="1.0" MUF="1.0" PDF="25433" > PDF=25410 MemberID=23 </weight>
<weight id="1416" MUR="1.0" MUF="1.0" PDF="25434" > PDF=25410 MemberID=24 </weight>
<weight id="1417" MUR="1.0" MUF="1.0" PDF="25435" > PDF=25410 MemberID=25 </weight>
<weight id="1418" MUR="1.0" MUF="1.0" PDF="25436" > PDF=25410 MemberID=26 </weight>
<weight id="1419" MUR="1.0" MUF="1.0" PDF="25437" > PDF=25410 MemberID=27 </weight>
<weight id="1420" MUR="1.0" MUF="1.0" PDF="25438" > PDF=25410 MemberID=28 </weight>
<weight id="1421" MUR="1.0" MUF="1.0" PDF="25439" > PDF=25410 MemberID=29 </weight>
<weight id="1422" MUR="1.0" MUF="1.0" PDF="25440" > PDF=25410 MemberID=30 </weight>
<weight id="1423" MUR="1.0" MUF="1.0" PDF="25441" > PDF=25410 MemberID=31 </weight>
<weight id="1424" MUR="1.0" MUF="1.0" PDF="25442" > PDF=25410 MemberID=32 </weight>
<weight id="1425" MUR="1.0" MUF="1.0" PDF="25443" > PDF=25410 MemberID=33 </weight>
<weight id="1426" MUR="1.0" MUF="1.0" PDF="25444" > PDF=25410 MemberID=34 </weight>
<weight id="1427" MUR="1.0" MUF="1.0" PDF="25445" > PDF=25410 MemberID=35 </weight>
<weight id="1428" MUR="1.0" MUF="1.0" PDF="25446" > PDF=25410 MemberID=36 </weight>
<weight id="1429" MUR="1.0" MUF="1.0" PDF="25447" > PDF=25410 MemberID=37 </weight>
<weight id="1430" MUR="1.0" MUF="1.0" PDF="25448" > PDF=25410 MemberID=38 </weight>
<weight id="1431" MUR="1.0" MUF="1.0" PDF="25449" > PDF=25410 MemberID=39 </weight>
<weight id="1432" MUR="1.0" MUF="1.0" PDF="25450" > PDF=25410 MemberID=40 </weight>
<weight id="1433" MUR="1.0" MUF="1.0" PDF="25451" > PDF=25410 MemberID=41 </weight>
<weight id="1434" MUR="1.0" MUF="1.0" PDF="25452" > PDF=25410 MemberID=42 </weight>
<weight id="1435" MUR="1.0" MUF="1.0" PDF="25453" > PDF=25410 MemberID=43 </weight>
<weight id="1436" MUR="1.0" MUF="1.0" PDF="25454" > PDF=25410 MemberID=44 </weight>
<weight id="1437" MUR="1.0" MUF="1.0" PDF="25455" > PDF=25410 MemberID=45 </weight>
<weight id="1438" MUR="1.0" MUF="1.0" PDF="25456" > PDF=25410 MemberID=46 </weight>
<weight id="1439" MUR="1.0" MUF="1.0" PDF="25457" > PDF=25410 MemberID=47 </weight>
<weight id="1440" MUR="1.0" MUF="1.0" PDF="25458" > PDF=25410 MemberID=48 </weight>
<weight id="1441" MUR="1.0" MUF="1.0" PDF="25459" > PDF=25410 MemberID=49 </weight>
<weight id="1442" MUR="1.0" MUF="1.0" PDF="25460" > PDF=25410 MemberID=50 </weight>
</weightgroup> # PDFSET -> PDFSET
<weightgroup name="MMHT2014nlo68clas118_nf4" combine="hessian"> # 25510: MMHT 2014 NLO (68% C.L.): evolve with 4 flavours maximum. This set has 51 member PDFs. mem=0 --.gt. central value; mem=1-50 --.gt. 20 eigenvector sets (+/- directions). Website: www.hep.ucl.ac.uk/mmht
<weight id="1443" MUR="1.0" MUF="1.0" PDF="25510" > PDF=25510 MemberID=0 </weight>
<weight id="1444" MUR="1.0" MUF="1.0" PDF="25511" > PDF=25510 MemberID=1 </weight>
<weight id="1445" MUR="1.0" MUF="1.0" PDF="25512" > PDF=25510 MemberID=2 </weight>
<weight id="1446" MUR="1.0" MUF="1.0" PDF="25513" > PDF=25510 MemberID=3 </weight>
<weight id="1447" MUR="1.0" MUF="1.0" PDF="25514" > PDF=25510 MemberID=4 </weight>
<weight id="1448" MUR="1.0" MUF="1.0" PDF="25515" > PDF=25510 MemberID=5 </weight>
<weight id="1449" MUR="1.0" MUF="1.0" PDF="25516" > PDF=25510 MemberID=6 </weight>
<weight id="1450" MUR="1.0" MUF="1.0" PDF="25517" > PDF=25510 MemberID=7 </weight>
<weight id="1451" MUR="1.0" MUF="1.0" PDF="25518" > PDF=25510 MemberID=8 </weight>
<weight id="1452" MUR="1.0" MUF="1.0" PDF="25519" > PDF=25510 MemberID=9 </weight>
<weight id="1453" MUR="1.0" MUF="1.0" PDF="25520" > PDF=25510 MemberID=10 </weight>
<weight id="1454" MUR="1.0" MUF="1.0" PDF="25521" > PDF=25510 MemberID=11 </weight>
<weight id="1455" MUR="1.0" MUF="1.0" PDF="25522" > PDF=25510 MemberID=12 </weight>
<weight id="1456" MUR="1.0" MUF="1.0" PDF="25523" > PDF=25510 MemberID=13 </weight>
<weight id="1457" MUR="1.0" MUF="1.0" PDF="25524" > PDF=25510 MemberID=14 </weight>
<weight id="1458" MUR="1.0" MUF="1.0" PDF="25525" > PDF=25510 MemberID=15 </weight>
<weight id="1459" MUR="1.0" MUF="1.0" PDF="25526" > PDF=25510 MemberID=16 </weight>
<weight id="1460" MUR="1.0" MUF="1.0" PDF="25527" > PDF=25510 MemberID=17 </weight>
<weight id="1461" MUR="1.0" MUF="1.0" PDF="25528" > PDF=25510 MemberID=18 </weight>
<weight id="1462" MUR="1.0" MUF="1.0" PDF="25529" > PDF=25510 MemberID=19 </weight>
<weight id="1463" MUR="1.0" MUF="1.0" PDF="25530" > PDF=25510 MemberID=20 </weight>
<weight id="1464" MUR="1.0" MUF="1.0" PDF="25531" > PDF=25510 MemberID=21 </weight>
<weight id="1465" MUR="1.0" MUF="1.0" PDF="25532" > PDF=25510 MemberID=22 </weight>
<weight id="1466" MUR="1.0" MUF="1.0" PDF="25533" > PDF=25510 MemberID=23 </weight>
<weight id="1467" MUR="1.0" MUF="1.0" PDF="25534" > PDF=25510 MemberID=24 </weight>
<weight id="1468" MUR="1.0" MUF="1.0" PDF="25535" > PDF=25510 MemberID=25 </weight>
<weight id="1469" MUR="1.0" MUF="1.0" PDF="25536" > PDF=25510 MemberID=26 </weight>
<weight id="1470" MUR="1.0" MUF="1.0" PDF="25537" > PDF=25510 MemberID=27 </weight>
<weight id="1471" MUR="1.0" MUF="1.0" PDF="25538" > PDF=25510 MemberID=28 </weight>
<weight id="1472" MUR="1.0" MUF="1.0" PDF="25539" > PDF=25510 MemberID=29 </weight>
<weight id="1473" MUR="1.0" MUF="1.0" PDF="25540" > PDF=25510 MemberID=30 </weight>
<weight id="1474" MUR="1.0" MUF="1.0" PDF="25541" > PDF=25510 MemberID=31 </weight>
<weight id="1475" MUR="1.0" MUF="1.0" PDF="25542" > PDF=25510 MemberID=32 </weight>
<weight id="1476" MUR="1.0" MUF="1.0" PDF="25543" > PDF=25510 MemberID=33 </weight>
<weight id="1477" MUR="1.0" MUF="1.0" PDF="25544" > PDF=25510 MemberID=34 </weight>
<weight id="1478" MUR="1.0" MUF="1.0" PDF="25545" > PDF=25510 MemberID=35 </weight>
<weight id="1479" MUR="1.0" MUF="1.0" PDF="25546" > PDF=25510 MemberID=36 </weight>
<weight id="1480" MUR="1.0" MUF="1.0" PDF="25547" > PDF=25510 MemberID=37 </weight>
<weight id="1481" MUR="1.0" MUF="1.0" PDF="25548" > PDF=25510 MemberID=38 </weight>
<weight id="1482" MUR="1.0" MUF="1.0" PDF="25549" > PDF=25510 MemberID=39 </weight>
<weight id="1483" MUR="1.0" MUF="1.0" PDF="25550" > PDF=25510 MemberID=40 </weight>
<weight id="1484" MUR="1.0" MUF="1.0" PDF="25551" > PDF=25510 MemberID=41 </weight>
<weight id="1485" MUR="1.0" MUF="1.0" PDF="25552" > PDF=25510 MemberID=42 </weight>
<weight id="1486" MUR="1.0" MUF="1.0" PDF="25553" > PDF=25510 MemberID=43 </weight>
<weight id="1487" MUR="1.0" MUF="1.0" PDF="25554" > PDF=25510 MemberID=44 </weight>
<weight id="1488" MUR="1.0" MUF="1.0" PDF="25555" > PDF=25510 MemberID=45 </weight>
<weight id="1489" MUR="1.0" MUF="1.0" PDF="25556" > PDF=25510 MemberID=46 </weight>
<weight id="1490" MUR="1.0" MUF="1.0" PDF="25557" > PDF=25510 MemberID=47 </weight>
<weight id="1491" MUR="1.0" MUF="1.0" PDF="25558" > PDF=25510 MemberID=48 </weight>
<weight id="1492" MUR="1.0" MUF="1.0" PDF="25559" > PDF=25510 MemberID=49 </weight>
<weight id="1493" MUR="1.0" MUF="1.0" PDF="25560" > PDF=25510 MemberID=50 </weight>
</weightgroup> # PDFSET -> PDFSET
<weightgroup name="MMHT2014nlo_asmzsmallrange_nf4" combine="unknown"> # 25570: MMHT 2014 NLO (fits for range of alpha_S values, evolve with 4 flavours maximum). This set has 5 member PDFs. mem=0 --.gt. best-fit alpha_S(M_Z) = 0.120; mem=1-4 --.gt. alpha_S(M_Z) = 0.117,...,0.121. Website: www.hep.ucl.ac.uk/mmht
<weight id="1494" MUR="1.0" MUF="1.0" PDF="25570" > PDF=25570 MemberID=0 </weight>
<weight id="1495" MUR="1.0" MUF="1.0" PDF="25571" > PDF=25570 MemberID=1 </weight>
<weight id="1496" MUR="1.0" MUF="1.0" PDF="25572" > PDF=25570 MemberID=2 </weight>
<weight id="1497" MUR="1.0" MUF="1.0" PDF="25573" > PDF=25570 MemberID=3 </weight>
<weight id="1498" MUR="1.0" MUF="1.0" PDF="25574" > PDF=25570 MemberID=4 </weight>
</weightgroup> # PDFSET -> PDFSET
<weightgroup name="MMHT2014nlo_mcrange_nf4" combine="unknown"> # 25605: MMHT 2014 NLO (range of mc, evolve with 4 flavours maximum). This set has 9 member PDFs. mem=0 --.gt. default mc = 1.40 GeV; mem=1-8 --.gt. mc = 1.15 - 1.55 GeV in steps of 0.05 GeV. Website: www.hep.ucl.ac.uk/mmht
<weight id="1499" MUR="1.0" MUF="1.0" PDF="25605" > PDF=25605 MemberID=0 </weight>
<weight id="1500" MUR="1.0" MUF="1.0" PDF="25606" > PDF=25605 MemberID=1 </weight>
<weight id="1501" MUR="1.0" MUF="1.0" PDF="25607" > PDF=25605 MemberID=2 </weight>
<weight id="1502" MUR="1.0" MUF="1.0" PDF="25608" > PDF=25605 MemberID=3 </weight>
<weight id="1503" MUR="1.0" MUF="1.0" PDF="25609" > PDF=25605 MemberID=4 </weight>
<weight id="1504" MUR="1.0" MUF="1.0" PDF="25610" > PDF=25605 MemberID=5 </weight>
<weight id="1505" MUR="1.0" MUF="1.0" PDF="25611" > PDF=25605 MemberID=6 </weight>
<weight id="1506" MUR="1.0" MUF="1.0" PDF="25612" > PDF=25605 MemberID=7 </weight>
<weight id="1507" MUR="1.0" MUF="1.0" PDF="25613" > PDF=25605 MemberID=8 </weight>
</weightgroup> # PDFSET -> PDFSET
<weightgroup name="MMHT2014nlo_mbrange_nf4" combine="unknown"> # 25620: MMHT 2014 NLO (range of mb, evolve with 4 flavours maximum). This set has 5 member PDFs. mem=0 --.gt. default mb = 4.75 GeV; mem=1-4 --.gt. mb = 4.25 - 5.25 GeV in steps of 0.25 GeV. Website: www.hep.ucl.ac.uk/mmht
<weight id="1508" MUR="1.0" MUF="1.0" PDF="25620" > PDF=25620 MemberID=0 </weight>
<weight id="1509" MUR="1.0" MUF="1.0" PDF="25621" > PDF=25620 MemberID=1 </weight>
<weight id="1510" MUR="1.0" MUF="1.0" PDF="25622" > PDF=25620 MemberID=2 </weight>
<weight id="1511" MUR="1.0" MUF="1.0" PDF="25623" > PDF=25620 MemberID=3 </weight>
<weight id="1512" MUR="1.0" MUF="1.0" PDF="25624" > PDF=25620 MemberID=4 </weight>
</weightgroup> # PDFSET -> PDFSET
<weightgroup name="MMHT2014nnlo68cl_nf4" combine="hessian"> # 25710: MMHT 2014 NNLO (68% C.L.): evolve with 4 flavours maximum. This set has 51 member PDFs. mem=0 --.gt. central value; mem=1-50 --.gt. 20 eigenvector sets (+/- directions). Website: www.hep.ucl.ac.uk/mmht
<weight id="1513" MUR="1.0" MUF="1.0" PDF="25710" > PDF=25710 MemberID=0 </weight>
<weight id="1514" MUR="1.0" MUF="1.0" PDF="25711" > PDF=25710 MemberID=1 </weight>
<weight id="1515" MUR="1.0" MUF="1.0" PDF="25712" > PDF=25710 MemberID=2 </weight>
<weight id="1516" MUR="1.0" MUF="1.0" PDF="25713" > PDF=25710 MemberID=3 </weight>
<weight id="1517" MUR="1.0" MUF="1.0" PDF="25714" > PDF=25710 MemberID=4 </weight>
<weight id="1518" MUR="1.0" MUF="1.0" PDF="25715" > PDF=25710 MemberID=5 </weight>
<weight id="1519" MUR="1.0" MUF="1.0" PDF="25716" > PDF=25710 MemberID=6 </weight>
<weight id="1520" MUR="1.0" MUF="1.0" PDF="25717" > PDF=25710 MemberID=7 </weight>
<weight id="1521" MUR="1.0" MUF="1.0" PDF="25718" > PDF=25710 MemberID=8 </weight>
<weight id="1522" MUR="1.0" MUF="1.0" PDF="25719" > PDF=25710 MemberID=9 </weight>
<weight id="1523" MUR="1.0" MUF="1.0" PDF="25720" > PDF=25710 MemberID=10 </weight>
<weight id="1524" MUR="1.0" MUF="1.0" PDF="25721" > PDF=25710 MemberID=11 </weight>
<weight id="1525" MUR="1.0" MUF="1.0" PDF="25722" > PDF=25710 MemberID=12 </weight>
<weight id="1526" MUR="1.0" MUF="1.0" PDF="25723" > PDF=25710 MemberID=13 </weight>
<weight id="1527" MUR="1.0" MUF="1.0" PDF="25724" > PDF=25710 MemberID=14 </weight>
<weight id="1528" MUR="1.0" MUF="1.0" PDF="25725" > PDF=25710 MemberID=15 </weight>
<weight id="1529" MUR="1.0" MUF="1.0" PDF="25726" > PDF=25710 MemberID=16 </weight>
<weight id="1530" MUR="1.0" MUF="1.0" PDF="25727" > PDF=25710 MemberID=17 </weight>
<weight id="1531" MUR="1.0" MUF="1.0" PDF="25728" > PDF=25710 MemberID=18 </weight>
<weight id="1532" MUR="1.0" MUF="1.0" PDF="25729" > PDF=25710 MemberID=19 </weight>
<weight id="1533" MUR="1.0" MUF="1.0" PDF="25730" > PDF=25710 MemberID=20 </weight>
<weight id="1534" MUR="1.0" MUF="1.0" PDF="25731" > PDF=25710 MemberID=21 </weight>
<weight id="1535" MUR="1.0" MUF="1.0" PDF="25732" > PDF=25710 MemberID=22 </weight>
<weight id="1536" MUR="1.0" MUF="1.0" PDF="25733" > PDF=25710 MemberID=23 </weight>
<weight id="1537" MUR="1.0" MUF="1.0" PDF="25734" > PDF=25710 MemberID=24 </weight>
<weight id="1538" MUR="1.0" MUF="1.0" PDF="25735" > PDF=25710 MemberID=25 </weight>
<weight id="1539" MUR="1.0" MUF="1.0" PDF="25736" > PDF=25710 MemberID=26 </weight>
<weight id="1540" MUR="1.0" MUF="1.0" PDF="25737" > PDF=25710 MemberID=27 </weight>
<weight id="1541" MUR="1.0" MUF="1.0" PDF="25738" > PDF=25710 MemberID=28 </weight>
<weight id="1542" MUR="1.0" MUF="1.0" PDF="25739" > PDF=25710 MemberID=29 </weight>
<weight id="1543" MUR="1.0" MUF="1.0" PDF="25740" > PDF=25710 MemberID=30 </weight>
<weight id="1544" MUR="1.0" MUF="1.0" PDF="25741" > PDF=25710 MemberID=31 </weight>
<weight id="1545" MUR="1.0" MUF="1.0" PDF="25742" > PDF=25710 MemberID=32 </weight>
<weight id="1546" MUR="1.0" MUF="1.0" PDF="25743" > PDF=25710 MemberID=33 </weight>
<weight id="1547" MUR="1.0" MUF="1.0" PDF="25744" > PDF=25710 MemberID=34 </weight>
<weight id="1548" MUR="1.0" MUF="1.0" PDF="25745" > PDF=25710 MemberID=35 </weight>
<weight id="1549" MUR="1.0" MUF="1.0" PDF="25746" > PDF=25710 MemberID=36 </weight>
<weight id="1550" MUR="1.0" MUF="1.0" PDF="25747" > PDF=25710 MemberID=37 </weight>
<weight id="1551" MUR="1.0" MUF="1.0" PDF="25748" > PDF=25710 MemberID=38 </weight>
<weight id="1552" MUR="1.0" MUF="1.0" PDF="25749" > PDF=25710 MemberID=39 </weight>
<weight id="1553" MUR="1.0" MUF="1.0" PDF="25750" > PDF=25710 MemberID=40 </weight>
<weight id="1554" MUR="1.0" MUF="1.0" PDF="25751" > PDF=25710 MemberID=41 </weight>
<weight id="1555" MUR="1.0" MUF="1.0" PDF="25752" > PDF=25710 MemberID=42 </weight>
<weight id="1556" MUR="1.0" MUF="1.0" PDF="25753" > PDF=25710 MemberID=43 </weight>
<weight id="1557" MUR="1.0" MUF="1.0" PDF="25754" > PDF=25710 MemberID=44 </weight>
<weight id="1558" MUR="1.0" MUF="1.0" PDF="25755" > PDF=25710 MemberID=45 </weight>
<weight id="1559" MUR="1.0" MUF="1.0" PDF="25756" > PDF=25710 MemberID=46 </weight>
<weight id="1560" MUR="1.0" MUF="1.0" PDF="25757" > PDF=25710 MemberID=47 </weight>
<weight id="1561" MUR="1.0" MUF="1.0" PDF="25758" > PDF=25710 MemberID=48 </weight>
<weight id="1562" MUR="1.0" MUF="1.0" PDF="25759" > PDF=25710 MemberID=49 </weight>
<weight id="1563" MUR="1.0" MUF="1.0" PDF="25760" > PDF=25710 MemberID=50 </weight>
</weightgroup> # PDFSET -> PDFSET
<weightgroup name="MMHT2014nnlo_asmzsmallrange_nf4" combine="unknown"> # 25770: MMHT 2014 NNLO (fits for range of alpha_S values, evolve with 4 flavours maximum). This set has 3 member PDFs. mem=0 --.gt. best-fit alpha_S(M_Z) = 0.118; mem=1-2 --.gt. alpha_S(M_Z) = 0.117, 0.119. Website: www.hep.ucl.ac.uk/mmht
<weight id="1564" MUR="1.0" MUF="1.0" PDF="25770" > PDF=25770 MemberID=0 </weight>
<weight id="1565" MUR="1.0" MUF="1.0" PDF="25771" > PDF=25770 MemberID=1 </weight>
<weight id="1566" MUR="1.0" MUF="1.0" PDF="25772" > PDF=25770 MemberID=2 </weight>
</weightgroup> # PDFSET -> PDFSET
<weightgroup name="MMHT2014nnlo_mcrange_nf4" combine="unknown"> # 25805: MMHT 2014 NNLO (range of mc, evolve with 4 flavours maximum). This set has 9 member PDFs. mem=0 --.gt. default mc = 1.40 GeV; mem=1-8 --.gt. mc = 1.15 - 1.55 GeV in steps of 0.05 GeV. Website: www.hep.ucl.ac.uk/mmht
<weight id="1567" MUR="1.0" MUF="1.0" PDF="25805" > PDF=25805 MemberID=0 </weight>
<weight id="1568" MUR="1.0" MUF="1.0" PDF="25806" > PDF=25805 MemberID=1 </weight>
<weight id="1569" MUR="1.0" MUF="1.0" PDF="25807" > PDF=25805 MemberID=2 </weight>
<weight id="1570" MUR="1.0" MUF="1.0" PDF="25808" > PDF=25805 MemberID=3 </weight>
<weight id="1571" MUR="1.0" MUF="1.0" PDF="25809" > PDF=25805 MemberID=4 </weight>
<weight id="1572" MUR="1.0" MUF="1.0" PDF="25810" > PDF=25805 MemberID=5 </weight>
<weight id="1573" MUR="1.0" MUF="1.0" PDF="25811" > PDF=25805 MemberID=6 </weight>
<weight id="1574" MUR="1.0" MUF="1.0" PDF="25812" > PDF=25805 MemberID=7 </weight>
<weight id="1575" MUR="1.0" MUF="1.0" PDF="25813" > PDF=25805 MemberID=8 </weight>
</weightgroup> # PDFSET -> PDFSET
<weightgroup name="MMHT2014nnlo_mbrange_nf4" combine="unknown"> # 25840: MMHT 2014 NNLO (range of mb, evolve with 4 flavours maximum). This set has 5 member PDFs. mem=0 --.gt. default mb = 4.75 GeV; mem=1-4 --.gt. mb = 4.25 - 5.25 GeV in steps of 0.25 GeV. Website: www.hep.ucl.ac.uk/mmht
<weight id="1576" MUR="1.0" MUF="1.0" PDF="25840" > PDF=25840 MemberID=0 </weight>
<weight id="1577" MUR="1.0" MUF="1.0" PDF="25841" > PDF=25840 MemberID=1 </weight>
<weight id="1578" MUR="1.0" MUF="1.0" PDF="25842" > PDF=25840 MemberID=2 </weight>
<weight id="1579" MUR="1.0" MUF="1.0" PDF="25843" > PDF=25840 MemberID=3 </weight>
<weight id="1580" MUR="1.0" MUF="1.0" PDF="25844" > PDF=25840 MemberID=4 </weight>
</weightgroup> # PDFSET -> PDFSET
<weightgroup name="PDF4LHC15_nlo_nf4_30" combine="symmhessian"> # 92000: PDF4LHC15_nlo_nf4_30, alphas(MZ)=0.1126, mem=0 ; central value; mem=1-30 ; PDF symmetric eigenvectors
<weight id="1581" MUR="1.0" MUF="1.0" PDF="92000" > PDF=92000 MemberID=0 </weight>
<weight id="1582" MUR="1.0" MUF="1.0" PDF="92001" > PDF=92000 MemberID=1 </weight>
<weight id="1583" MUR="1.0" MUF="1.0" PDF="92002" > PDF=92000 MemberID=2 </weight>
<weight id="1584" MUR="1.0" MUF="1.0" PDF="92003" > PDF=92000 MemberID=3 </weight>
<weight id="1585" MUR="1.0" MUF="1.0" PDF="92004" > PDF=92000 MemberID=4 </weight>
<weight id="1586" MUR="1.0" MUF="1.0" PDF="92005" > PDF=92000 MemberID=5 </weight>
<weight id="1587" MUR="1.0" MUF="1.0" PDF="92006" > PDF=92000 MemberID=6 </weight>
<weight id="1588" MUR="1.0" MUF="1.0" PDF="92007" > PDF=92000 MemberID=7 </weight>
<weight id="1589" MUR="1.0" MUF="1.0" PDF="92008" > PDF=92000 MemberID=8 </weight>
<weight id="1590" MUR="1.0" MUF="1.0" PDF="92009" > PDF=92000 MemberID=9 </weight>
<weight id="1591" MUR="1.0" MUF="1.0" PDF="92010" > PDF=92000 MemberID=10 </weight>
<weight id="1592" MUR="1.0" MUF="1.0" PDF="92011" > PDF=92000 MemberID=11 </weight>
<weight id="1593" MUR="1.0" MUF="1.0" PDF="92012" > PDF=92000 MemberID=12 </weight>
<weight id="1594" MUR="1.0" MUF="1.0" PDF="92013" > PDF=92000 MemberID=13 </weight>
<weight id="1595" MUR="1.0" MUF="1.0" PDF="92014" > PDF=92000 MemberID=14 </weight>
<weight id="1596" MUR="1.0" MUF="1.0" PDF="92015" > PDF=92000 MemberID=15 </weight>
<weight id="1597" MUR="1.0" MUF="1.0" PDF="92016" > PDF=92000 MemberID=16 </weight>
<weight id="1598" MUR="1.0" MUF="1.0" PDF="92017" > PDF=92000 MemberID=17 </weight>
<weight id="1599" MUR="1.0" MUF="1.0" PDF="92018" > PDF=92000 MemberID=18 </weight>
<weight id="1600" MUR="1.0" MUF="1.0" PDF="92019" > PDF=92000 MemberID=19 </weight>
<weight id="1601" MUR="1.0" MUF="1.0" PDF="92020" > PDF=92000 MemberID=20 </weight>
<weight id="1602" MUR="1.0" MUF="1.0" PDF="92021" > PDF=92000 MemberID=21 </weight>
<weight id="1603" MUR="1.0" MUF="1.0" PDF="92022" > PDF=92000 MemberID=22 </weight>
<weight id="1604" MUR="1.0" MUF="1.0" PDF="92023" > PDF=92000 MemberID=23 </weight>
<weight id="1605" MUR="1.0" MUF="1.0" PDF="92024" > PDF=92000 MemberID=24 </weight>
<weight id="1606" MUR="1.0" MUF="1.0" PDF="92025" > PDF=92000 MemberID=25 </weight>
<weight id="1607" MUR="1.0" MUF="1.0" PDF="92026" > PDF=92000 MemberID=26 </weight>
<weight id="1608" MUR="1.0" MUF="1.0" PDF="92027" > PDF=92000 MemberID=27 </weight>
<weight id="1609" MUR="1.0" MUF="1.0" PDF="92028" > PDF=92000 MemberID=28 </weight>
<weight id="1610" MUR="1.0" MUF="1.0" PDF="92029" > PDF=92000 MemberID=29 </weight>
<weight id="1611" MUR="1.0" MUF="1.0" PDF="92030" > PDF=92000 MemberID=30 </weight>
</weightgroup> # PDFSET -> PDFSET
<weightgroup name="NNPDF31_nnlo_hessian_pdfas" combine="symmhessian+as"> # 306000: Hessian conversion of NNPDF31_nnlo_as_0118_1000, mem=0 central value ; Alphas(MZ)=0.118; mem=1-100 ; PDF eig.; mem=101 ; central value Alphas(MZ)=0.116; mem=102 ; central value Alphas(MZ)=0.120
<weight id="1612" MUR="1.0" MUF="1.0" PDF="306000" > PDF=306000 MemberID=0 </weight>
<weight id="1613" MUR="1.0" MUF="1.0" PDF="306001" > PDF=306000 MemberID=1 </weight>
<weight id="1614" MUR="1.0" MUF="1.0" PDF="306002" > PDF=306000 MemberID=2 </weight>
<weight id="1615" MUR="1.0" MUF="1.0" PDF="306003" > PDF=306000 MemberID=3 </weight>
<weight id="1616" MUR="1.0" MUF="1.0" PDF="306004" > PDF=306000 MemberID=4 </weight>
<weight id="1617" MUR="1.0" MUF="1.0" PDF="306005" > PDF=306000 MemberID=5 </weight>
<weight id="1618" MUR="1.0" MUF="1.0" PDF="306006" > PDF=306000 MemberID=6 </weight>
<weight id="1619" MUR="1.0" MUF="1.0" PDF="306007" > PDF=306000 MemberID=7 </weight>
<weight id="1620" MUR="1.0" MUF="1.0" PDF="306008" > PDF=306000 MemberID=8 </weight>
<weight id="1621" MUR="1.0" MUF="1.0" PDF="306009" > PDF=306000 MemberID=9 </weight>
<weight id="1622" MUR="1.0" MUF="1.0" PDF="306010" > PDF=306000 MemberID=10 </weight>
<weight id="1623" MUR="1.0" MUF="1.0" PDF="306011" > PDF=306000 MemberID=11 </weight>
<weight id="1624" MUR="1.0" MUF="1.0" PDF="306012" > PDF=306000 MemberID=12 </weight>
<weight id="1625" MUR="1.0" MUF="1.0" PDF="306013" > PDF=306000 MemberID=13 </weight>
<weight id="1626" MUR="1.0" MUF="1.0" PDF="306014" > PDF=306000 MemberID=14 </weight>
<weight id="1627" MUR="1.0" MUF="1.0" PDF="306015" > PDF=306000 MemberID=15 </weight>
<weight id="1628" MUR="1.0" MUF="1.0" PDF="306016" > PDF=306000 MemberID=16 </weight>
<weight id="1629" MUR="1.0" MUF="1.0" PDF="306017" > PDF=306000 MemberID=17 </weight>
<weight id="1630" MUR="1.0" MUF="1.0" PDF="306018" > PDF=306000 MemberID=18 </weight>
<weight id="1631" MUR="1.0" MUF="1.0" PDF="306019" > PDF=306000 MemberID=19 </weight>
<weight id="1632" MUR="1.0" MUF="1.0" PDF="306020" > PDF=306000 MemberID=20 </weight>
<weight id="1633" MUR="1.0" MUF="1.0" PDF="306021" > PDF=306000 MemberID=21 </weight>
<weight id="1634" MUR="1.0" MUF="1.0" PDF="306022" > PDF=306000 MemberID=22 </weight>
<weight id="1635" MUR="1.0" MUF="1.0" PDF="306023" > PDF=306000 MemberID=23 </weight>
<weight id="1636" MUR="1.0" MUF="1.0" PDF="306024" > PDF=306000 MemberID=24 </weight>
<weight id="1637" MUR="1.0" MUF="1.0" PDF="306025" > PDF=306000 MemberID=25 </weight>
<weight id="1638" MUR="1.0" MUF="1.0" PDF="306026" > PDF=306000 MemberID=26 </weight>
<weight id="1639" MUR="1.0" MUF="1.0" PDF="306027" > PDF=306000 MemberID=27 </weight>
<weight id="1640" MUR="1.0" MUF="1.0" PDF="306028" > PDF=306000 MemberID=28 </weight>
<weight id="1641" MUR="1.0" MUF="1.0" PDF="306029" > PDF=306000 MemberID=29 </weight>
<weight id="1642" MUR="1.0" MUF="1.0" PDF="306030" > PDF=306000 MemberID=30 </weight>
<weight id="1643" MUR="1.0" MUF="1.0" PDF="306031" > PDF=306000 MemberID=31 </weight>
<weight id="1644" MUR="1.0" MUF="1.0" PDF="306032" > PDF=306000 MemberID=32 </weight>
<weight id="1645" MUR="1.0" MUF="1.0" PDF="306033" > PDF=306000 MemberID=33 </weight>
<weight id="1646" MUR="1.0" MUF="1.0" PDF="306034" > PDF=306000 MemberID=34 </weight>
<weight id="1647" MUR="1.0" MUF="1.0" PDF="306035" > PDF=306000 MemberID=35 </weight>
<weight id="1648" MUR="1.0" MUF="1.0" PDF="306036" > PDF=306000 MemberID=36 </weight>
<weight id="1649" MUR="1.0" MUF="1.0" PDF="306037" > PDF=306000 MemberID=37 </weight>
<weight id="1650" MUR="1.0" MUF="1.0" PDF="306038" > PDF=306000 MemberID=38 </weight>
<weight id="1651" MUR="1.0" MUF="1.0" PDF="306039" > PDF=306000 MemberID=39 </weight>
<weight id="1652" MUR="1.0" MUF="1.0" PDF="306040" > PDF=306000 MemberID=40 </weight>
<weight id="1653" MUR="1.0" MUF="1.0" PDF="306041" > PDF=306000 MemberID=41 </weight>
<weight id="1654" MUR="1.0" MUF="1.0" PDF="306042" > PDF=306000 MemberID=42 </weight>
<weight id="1655" MUR="1.0" MUF="1.0" PDF="306043" > PDF=306000 MemberID=43 </weight>
<weight id="1656" MUR="1.0" MUF="1.0" PDF="306044" > PDF=306000 MemberID=44 </weight>
<weight id="1657" MUR="1.0" MUF="1.0" PDF="306045" > PDF=306000 MemberID=45 </weight>
<weight id="1658" MUR="1.0" MUF="1.0" PDF="306046" > PDF=306000 MemberID=46 </weight>
<weight id="1659" MUR="1.0" MUF="1.0" PDF="306047" > PDF=306000 MemberID=47 </weight>
<weight id="1660" MUR="1.0" MUF="1.0" PDF="306048" > PDF=306000 MemberID=48 </weight>
<weight id="1661" MUR="1.0" MUF="1.0" PDF="306049" > PDF=306000 MemberID=49 </weight>
<weight id="1662" MUR="1.0" MUF="1.0" PDF="306050" > PDF=306000 MemberID=50 </weight>
<weight id="1663" MUR="1.0" MUF="1.0" PDF="306051" > PDF=306000 MemberID=51 </weight>
<weight id="1664" MUR="1.0" MUF="1.0" PDF="306052" > PDF=306000 MemberID=52 </weight>
<weight id="1665" MUR="1.0" MUF="1.0" PDF="306053" > PDF=306000 MemberID=53 </weight>
<weight id="1666" MUR="1.0" MUF="1.0" PDF="306054" > PDF=306000 MemberID=54 </weight>
<weight id="1667" MUR="1.0" MUF="1.0" PDF="306055" > PDF=306000 MemberID=55 </weight>
<weight id="1668" MUR="1.0" MUF="1.0" PDF="306056" > PDF=306000 MemberID=56 </weight>
<weight id="1669" MUR="1.0" MUF="1.0" PDF="306057" > PDF=306000 MemberID=57 </weight>
<weight id="1670" MUR="1.0" MUF="1.0" PDF="306058" > PDF=306000 MemberID=58 </weight>
<weight id="1671" MUR="1.0" MUF="1.0" PDF="306059" > PDF=306000 MemberID=59 </weight>
<weight id="1672" MUR="1.0" MUF="1.0" PDF="306060" > PDF=306000 MemberID=60 </weight>
<weight id="1673" MUR="1.0" MUF="1.0" PDF="306061" > PDF=306000 MemberID=61 </weight>
<weight id="1674" MUR="1.0" MUF="1.0" PDF="306062" > PDF=306000 MemberID=62 </weight>
<weight id="1675" MUR="1.0" MUF="1.0" PDF="306063" > PDF=306000 MemberID=63 </weight>
<weight id="1676" MUR="1.0" MUF="1.0" PDF="306064" > PDF=306000 MemberID=64 </weight>
<weight id="1677" MUR="1.0" MUF="1.0" PDF="306065" > PDF=306000 MemberID=65 </weight>
<weight id="1678" MUR="1.0" MUF="1.0" PDF="306066" > PDF=306000 MemberID=66 </weight>
<weight id="1679" MUR="1.0" MUF="1.0" PDF="306067" > PDF=306000 MemberID=67 </weight>
<weight id="1680" MUR="1.0" MUF="1.0" PDF="306068" > PDF=306000 MemberID=68 </weight>
<weight id="1681" MUR="1.0" MUF="1.0" PDF="306069" > PDF=306000 MemberID=69 </weight>
<weight id="1682" MUR="1.0" MUF="1.0" PDF="306070" > PDF=306000 MemberID=70 </weight>
<weight id="1683" MUR="1.0" MUF="1.0" PDF="306071" > PDF=306000 MemberID=71 </weight>
<weight id="1684" MUR="1.0" MUF="1.0" PDF="306072" > PDF=306000 MemberID=72 </weight>
<weight id="1685" MUR="1.0" MUF="1.0" PDF="306073" > PDF=306000 MemberID=73 </weight>
<weight id="1686" MUR="1.0" MUF="1.0" PDF="306074" > PDF=306000 MemberID=74 </weight>
<weight id="1687" MUR="1.0" MUF="1.0" PDF="306075" > PDF=306000 MemberID=75 </weight>
<weight id="1688" MUR="1.0" MUF="1.0" PDF="306076" > PDF=306000 MemberID=76 </weight>
<weight id="1689" MUR="1.0" MUF="1.0" PDF="306077" > PDF=306000 MemberID=77 </weight>
<weight id="1690" MUR="1.0" MUF="1.0" PDF="306078" > PDF=306000 MemberID=78 </weight>
<weight id="1691" MUR="1.0" MUF="1.0" PDF="306079" > PDF=306000 MemberID=79 </weight>
<weight id="1692" MUR="1.0" MUF="1.0" PDF="306080" > PDF=306000 MemberID=80 </weight>
<weight id="1693" MUR="1.0" MUF="1.0" PDF="306081" > PDF=306000 MemberID=81 </weight>
<weight id="1694" MUR="1.0" MUF="1.0" PDF="306082" > PDF=306000 MemberID=82 </weight>
<weight id="1695" MUR="1.0" MUF="1.0" PDF="306083" > PDF=306000 MemberID=83 </weight>
<weight id="1696" MUR="1.0" MUF="1.0" PDF="306084" > PDF=306000 MemberID=84 </weight>
<weight id="1697" MUR="1.0" MUF="1.0" PDF="306085" > PDF=306000 MemberID=85 </weight>
<weight id="1698" MUR="1.0" MUF="1.0" PDF="306086" > PDF=306000 MemberID=86 </weight>
<weight id="1699" MUR="1.0" MUF="1.0" PDF="306087" > PDF=306000 MemberID=87 </weight>
<weight id="1700" MUR="1.0" MUF="1.0" PDF="306088" > PDF=306000 MemberID=88 </weight>
<weight id="1701" MUR="1.0" MUF="1.0" PDF="306089" > PDF=306000 MemberID=89 </weight>
<weight id="1702" MUR="1.0" MUF="1.0" PDF="306090" > PDF=306000 MemberID=90 </weight>
<weight id="1703" MUR="1.0" MUF="1.0" PDF="306091" > PDF=306000 MemberID=91 </weight>
<weight id="1704" MUR="1.0" MUF="1.0" PDF="306092" > PDF=306000 MemberID=92 </weight>
<weight id="1705" MUR="1.0" MUF="1.0" PDF="306093" > PDF=306000 MemberID=93 </weight>
<weight id="1706" MUR="1.0" MUF="1.0" PDF="306094" > PDF=306000 MemberID=94 </weight>
<weight id="1707" MUR="1.0" MUF="1.0" PDF="306095" > PDF=306000 MemberID=95 </weight>
<weight id="1708" MUR="1.0" MUF="1.0" PDF="306096" > PDF=306000 MemberID=96 </weight>
<weight id="1709" MUR="1.0" MUF="1.0" PDF="306097" > PDF=306000 MemberID=97 </weight>
<weight id="1710" MUR="1.0" MUF="1.0" PDF="306098" > PDF=306000 MemberID=98 </weight>
<weight id="1711" MUR="1.0" MUF="1.0" PDF="306099" > PDF=306000 MemberID=99 </weight>
<weight id="1712" MUR="1.0" MUF="1.0" PDF="306100" > PDF=306000 MemberID=100 </weight>
<weight id="1713" MUR="1.0" MUF="1.0" PDF="306101" > PDF=306000 MemberID=101 </weight>
<weight id="1714" MUR="1.0" MUF="1.0" PDF="306102" > PDF=306000 MemberID=102 </weight>
</weightgroup> # PDFSET -> PDFSET
<weightgroup name="NNPDF31_nlo_as_0118_nf_4" combine="replicas"> # 320500: NNPDF3.1 NLO global fit, nf=4. mem=0 ; average on replicas; mem=1-100 ; PDF replicas
<weight id="1715" MUR="1.0" MUF="1.0" PDF="320500" > PDF=320500 MemberID=0 </weight>
<weight id="1716" MUR="1.0" MUF="1.0" PDF="320501" > PDF=320500 MemberID=1 </weight>
<weight id="1717" MUR="1.0" MUF="1.0" PDF="320502" > PDF=320500 MemberID=2 </weight>
<weight id="1718" MUR="1.0" MUF="1.0" PDF="320503" > PDF=320500 MemberID=3 </weight>
<weight id="1719" MUR="1.0" MUF="1.0" PDF="320504" > PDF=320500 MemberID=4 </weight>
<weight id="1720" MUR="1.0" MUF="1.0" PDF="320505" > PDF=320500 MemberID=5 </weight>
<weight id="1721" MUR="1.0" MUF="1.0" PDF="320506" > PDF=320500 MemberID=6 </weight>
<weight id="1722" MUR="1.0" MUF="1.0" PDF="320507" > PDF=320500 MemberID=7 </weight>
<weight id="1723" MUR="1.0" MUF="1.0" PDF="320508" > PDF=320500 MemberID=8 </weight>
<weight id="1724" MUR="1.0" MUF="1.0" PDF="320509" > PDF=320500 MemberID=9 </weight>
<weight id="1725" MUR="1.0" MUF="1.0" PDF="320510" > PDF=320500 MemberID=10 </weight>
<weight id="1726" MUR="1.0" MUF="1.0" PDF="320511" > PDF=320500 MemberID=11 </weight>
<weight id="1727" MUR="1.0" MUF="1.0" PDF="320512" > PDF=320500 MemberID=12 </weight>
<weight id="1728" MUR="1.0" MUF="1.0" PDF="320513" > PDF=320500 MemberID=13 </weight>
<weight id="1729" MUR="1.0" MUF="1.0" PDF="320514" > PDF=320500 MemberID=14 </weight>
<weight id="1730" MUR="1.0" MUF="1.0" PDF="320515" > PDF=320500 MemberID=15 </weight>
<weight id="1731" MUR="1.0" MUF="1.0" PDF="320516" > PDF=320500 MemberID=16 </weight>
<weight id="1732" MUR="1.0" MUF="1.0" PDF="320517" > PDF=320500 MemberID=17 </weight>
<weight id="1733" MUR="1.0" MUF="1.0" PDF="320518" > PDF=320500 MemberID=18 </weight>
<weight id="1734" MUR="1.0" MUF="1.0" PDF="320519" > PDF=320500 MemberID=19 </weight>
<weight id="1735" MUR="1.0" MUF="1.0" PDF="320520" > PDF=320500 MemberID=20 </weight>
<weight id="1736" MUR="1.0" MUF="1.0" PDF="320521" > PDF=320500 MemberID=21 </weight>
<weight id="1737" MUR="1.0" MUF="1.0" PDF="320522" > PDF=320500 MemberID=22 </weight>
<weight id="1738" MUR="1.0" MUF="1.0" PDF="320523" > PDF=320500 MemberID=23 </weight>
<weight id="1739" MUR="1.0" MUF="1.0" PDF="320524" > PDF=320500 MemberID=24 </weight>
<weight id="1740" MUR="1.0" MUF="1.0" PDF="320525" > PDF=320500 MemberID=25 </weight>
<weight id="1741" MUR="1.0" MUF="1.0" PDF="320526" > PDF=320500 MemberID=26 </weight>
<weight id="1742" MUR="1.0" MUF="1.0" PDF="320527" > PDF=320500 MemberID=27 </weight>
<weight id="1743" MUR="1.0" MUF="1.0" PDF="320528" > PDF=320500 MemberID=28 </weight>
<weight id="1744" MUR="1.0" MUF="1.0" PDF="320529" > PDF=320500 MemberID=29 </weight>
<weight id="1745" MUR="1.0" MUF="1.0" PDF="320530" > PDF=320500 MemberID=30 </weight>
<weight id="1746" MUR="1.0" MUF="1.0" PDF="320531" > PDF=320500 MemberID=31 </weight>
<weight id="1747" MUR="1.0" MUF="1.0" PDF="320532" > PDF=320500 MemberID=32 </weight>
<weight id="1748" MUR="1.0" MUF="1.0" PDF="320533" > PDF=320500 MemberID=33 </weight>
<weight id="1749" MUR="1.0" MUF="1.0" PDF="320534" > PDF=320500 MemberID=34 </weight>
<weight id="1750" MUR="1.0" MUF="1.0" PDF="320535" > PDF=320500 MemberID=35 </weight>
<weight id="1751" MUR="1.0" MUF="1.0" PDF="320536" > PDF=320500 MemberID=36 </weight>
<weight id="1752" MUR="1.0" MUF="1.0" PDF="320537" > PDF=320500 MemberID=37 </weight>
<weight id="1753" MUR="1.0" MUF="1.0" PDF="320538" > PDF=320500 MemberID=38 </weight>
<weight id="1754" MUR="1.0" MUF="1.0" PDF="320539" > PDF=320500 MemberID=39 </weight>
<weight id="1755" MUR="1.0" MUF="1.0" PDF="320540" > PDF=320500 MemberID=40 </weight>
<weight id="1756" MUR="1.0" MUF="1.0" PDF="320541" > PDF=320500 MemberID=41 </weight>
<weight id="1757" MUR="1.0" MUF="1.0" PDF="320542" > PDF=320500 MemberID=42 </weight>
<weight id="1758" MUR="1.0" MUF="1.0" PDF="320543" > PDF=320500 MemberID=43 </weight>
<weight id="1759" MUR="1.0" MUF="1.0" PDF="320544" > PDF=320500 MemberID=44 </weight>
<weight id="1760" MUR="1.0" MUF="1.0" PDF="320545" > PDF=320500 MemberID=45 </weight>
<weight id="1761" MUR="1.0" MUF="1.0" PDF="320546" > PDF=320500 MemberID=46 </weight>
<weight id="1762" MUR="1.0" MUF="1.0" PDF="320547" > PDF=320500 MemberID=47 </weight>
<weight id="1763" MUR="1.0" MUF="1.0" PDF="320548" > PDF=320500 MemberID=48 </weight>
<weight id="1764" MUR="1.0" MUF="1.0" PDF="320549" > PDF=320500 MemberID=49 </weight>
<weight id="1765" MUR="1.0" MUF="1.0" PDF="320550" > PDF=320500 MemberID=50 </weight>
<weight id="1766" MUR="1.0" MUF="1.0" PDF="320551" > PDF=320500 MemberID=51 </weight>
<weight id="1767" MUR="1.0" MUF="1.0" PDF="320552" > PDF=320500 MemberID=52 </weight>
<weight id="1768" MUR="1.0" MUF="1.0" PDF="320553" > PDF=320500 MemberID=53 </weight>
<weight id="1769" MUR="1.0" MUF="1.0" PDF="320554" > PDF=320500 MemberID=54 </weight>
<weight id="1770" MUR="1.0" MUF="1.0" PDF="320555" > PDF=320500 MemberID=55 </weight>
<weight id="1771" MUR="1.0" MUF="1.0" PDF="320556" > PDF=320500 MemberID=56 </weight>
<weight id="1772" MUR="1.0" MUF="1.0" PDF="320557" > PDF=320500 MemberID=57 </weight>
<weight id="1773" MUR="1.0" MUF="1.0" PDF="320558" > PDF=320500 MemberID=58 </weight>
<weight id="1774" MUR="1.0" MUF="1.0" PDF="320559" > PDF=320500 MemberID=59 </weight>
<weight id="1775" MUR="1.0" MUF="1.0" PDF="320560" > PDF=320500 MemberID=60 </weight>
<weight id="1776" MUR="1.0" MUF="1.0" PDF="320561" > PDF=320500 MemberID=61 </weight>
<weight id="1777" MUR="1.0" MUF="1.0" PDF="320562" > PDF=320500 MemberID=62 </weight>
<weight id="1778" MUR="1.0" MUF="1.0" PDF="320563" > PDF=320500 MemberID=63 </weight>
<weight id="1779" MUR="1.0" MUF="1.0" PDF="320564" > PDF=320500 MemberID=64 </weight>
<weight id="1780" MUR="1.0" MUF="1.0" PDF="320565" > PDF=320500 MemberID=65 </weight>
<weight id="1781" MUR="1.0" MUF="1.0" PDF="320566" > PDF=320500 MemberID=66 </weight>
<weight id="1782" MUR="1.0" MUF="1.0" PDF="320567" > PDF=320500 MemberID=67 </weight>
<weight id="1783" MUR="1.0" MUF="1.0" PDF="320568" > PDF=320500 MemberID=68 </weight>
<weight id="1784" MUR="1.0" MUF="1.0" PDF="320569" > PDF=320500 MemberID=69 </weight>
<weight id="1785" MUR="1.0" MUF="1.0" PDF="320570" > PDF=320500 MemberID=70 </weight>
<weight id="1786" MUR="1.0" MUF="1.0" PDF="320571" > PDF=320500 MemberID=71 </weight>
<weight id="1787" MUR="1.0" MUF="1.0" PDF="320572" > PDF=320500 MemberID=72 </weight>
<weight id="1788" MUR="1.0" MUF="1.0" PDF="320573" > PDF=320500 MemberID=73 </weight>
<weight id="1789" MUR="1.0" MUF="1.0" PDF="320574" > PDF=320500 MemberID=74 </weight>
<weight id="1790" MUR="1.0" MUF="1.0" PDF="320575" > PDF=320500 MemberID=75 </weight>
<weight id="1791" MUR="1.0" MUF="1.0" PDF="320576" > PDF=320500 MemberID=76 </weight>
<weight id="1792" MUR="1.0" MUF="1.0" PDF="320577" > PDF=320500 MemberID=77 </weight>
<weight id="1793" MUR="1.0" MUF="1.0" PDF="320578" > PDF=320500 MemberID=78 </weight>
<weight id="1794" MUR="1.0" MUF="1.0" PDF="320579" > PDF=320500 MemberID=79 </weight>
<weight id="1795" MUR="1.0" MUF="1.0" PDF="320580" > PDF=320500 MemberID=80 </weight>
<weight id="1796" MUR="1.0" MUF="1.0" PDF="320581" > PDF=320500 MemberID=81 </weight>
<weight id="1797" MUR="1.0" MUF="1.0" PDF="320582" > PDF=320500 MemberID=82 </weight>
<weight id="1798" MUR="1.0" MUF="1.0" PDF="320583" > PDF=320500 MemberID=83 </weight>
<weight id="1799" MUR="1.0" MUF="1.0" PDF="320584" > PDF=320500 MemberID=84 </weight>
<weight id="1800" MUR="1.0" MUF="1.0" PDF="320585" > PDF=320500 MemberID=85 </weight>
<weight id="1801" MUR="1.0" MUF="1.0" PDF="320586" > PDF=320500 MemberID=86 </weight>
<weight id="1802" MUR="1.0" MUF="1.0" PDF="320587" > PDF=320500 MemberID=87 </weight>
<weight id="1803" MUR="1.0" MUF="1.0" PDF="320588" > PDF=320500 MemberID=88 </weight>
<weight id="1804" MUR="1.0" MUF="1.0" PDF="320589" > PDF=320500 MemberID=89 </weight>
<weight id="1805" MUR="1.0" MUF="1.0" PDF="320590" > PDF=320500 MemberID=90 </weight>
<weight id="1806" MUR="1.0" MUF="1.0" PDF="320591" > PDF=320500 MemberID=91 </weight>
<weight id="1807" MUR="1.0" MUF="1.0" PDF="320592" > PDF=320500 MemberID=92 </weight>
<weight id="1808" MUR="1.0" MUF="1.0" PDF="320593" > PDF=320500 MemberID=93 </weight>
<weight id="1809" MUR="1.0" MUF="1.0" PDF="320594" > PDF=320500 MemberID=94 </weight>
<weight id="1810" MUR="1.0" MUF="1.0" PDF="320595" > PDF=320500 MemberID=95 </weight>
<weight id="1811" MUR="1.0" MUF="1.0" PDF="320596" > PDF=320500 MemberID=96 </weight>
<weight id="1812" MUR="1.0" MUF="1.0" PDF="320597" > PDF=320500 MemberID=97 </weight>
<weight id="1813" MUR="1.0" MUF="1.0" PDF="320598" > PDF=320500 MemberID=98 </weight>
<weight id="1814" MUR="1.0" MUF="1.0" PDF="320599" > PDF=320500 MemberID=99 </weight>
<weight id="1815" MUR="1.0" MUF="1.0" PDF="320600" > PDF=320500 MemberID=100 </weight>
</weightgroup> # PDFSET -> PDFSET
<weightgroup name="NNPDF30_nlo_as_0118_nf_4" combine="replicas"> # 260400: NNPDF3.0 NLO global fit, alphas(mb)=0.22278. mem=0 ; average on replicas; mem=1-100 ; PDF replicas
<weight id="1816" MUR="1.0" MUF="1.0" PDF="260400" > PDF=260400 MemberID=0 </weight>
<weight id="1817" MUR="1.0" MUF="1.0" PDF="260401" > PDF=260400 MemberID=1 </weight>
<weight id="1818" MUR="1.0" MUF="1.0" PDF="260402" > PDF=260400 MemberID=2 </weight>
<weight id="1819" MUR="1.0" MUF="1.0" PDF="260403" > PDF=260400 MemberID=3 </weight>
<weight id="1820" MUR="1.0" MUF="1.0" PDF="260404" > PDF=260400 MemberID=4 </weight>
<weight id="1821" MUR="1.0" MUF="1.0" PDF="260405" > PDF=260400 MemberID=5 </weight>
<weight id="1822" MUR="1.0" MUF="1.0" PDF="260406" > PDF=260400 MemberID=6 </weight>
<weight id="1823" MUR="1.0" MUF="1.0" PDF="260407" > PDF=260400 MemberID=7 </weight>
<weight id="1824" MUR="1.0" MUF="1.0" PDF="260408" > PDF=260400 MemberID=8 </weight>
<weight id="1825" MUR="1.0" MUF="1.0" PDF="260409" > PDF=260400 MemberID=9 </weight>
<weight id="1826" MUR="1.0" MUF="1.0" PDF="260410" > PDF=260400 MemberID=10 </weight>
<weight id="1827" MUR="1.0" MUF="1.0" PDF="260411" > PDF=260400 MemberID=11 </weight>
<weight id="1828" MUR="1.0" MUF="1.0" PDF="260412" > PDF=260400 MemberID=12 </weight>
<weight id="1829" MUR="1.0" MUF="1.0" PDF="260413" > PDF=260400 MemberID=13 </weight>
<weight id="1830" MUR="1.0" MUF="1.0" PDF="260414" > PDF=260400 MemberID=14 </weight>
<weight id="1831" MUR="1.0" MUF="1.0" PDF="260415" > PDF=260400 MemberID=15 </weight>
<weight id="1832" MUR="1.0" MUF="1.0" PDF="260416" > PDF=260400 MemberID=16 </weight>
<weight id="1833" MUR="1.0" MUF="1.0" PDF="260417" > PDF=260400 MemberID=17 </weight>
<weight id="1834" MUR="1.0" MUF="1.0" PDF="260418" > PDF=260400 MemberID=18 </weight>
<weight id="1835" MUR="1.0" MUF="1.0" PDF="260419" > PDF=260400 MemberID=19 </weight>
<weight id="1836" MUR="1.0" MUF="1.0" PDF="260420" > PDF=260400 MemberID=20 </weight>
<weight id="1837" MUR="1.0" MUF="1.0" PDF="260421" > PDF=260400 MemberID=21 </weight>
<weight id="1838" MUR="1.0" MUF="1.0" PDF="260422" > PDF=260400 MemberID=22 </weight>
<weight id="1839" MUR="1.0" MUF="1.0" PDF="260423" > PDF=260400 MemberID=23 </weight>
<weight id="1840" MUR="1.0" MUF="1.0" PDF="260424" > PDF=260400 MemberID=24 </weight>
<weight id="1841" MUR="1.0" MUF="1.0" PDF="260425" > PDF=260400 MemberID=25 </weight>
<weight id="1842" MUR="1.0" MUF="1.0" PDF="260426" > PDF=260400 MemberID=26 </weight>
<weight id="1843" MUR="1.0" MUF="1.0" PDF="260427" > PDF=260400 MemberID=27 </weight>
<weight id="1844" MUR="1.0" MUF="1.0" PDF="260428" > PDF=260400 MemberID=28 </weight>
<weight id="1845" MUR="1.0" MUF="1.0" PDF="260429" > PDF=260400 MemberID=29 </weight>
<weight id="1846" MUR="1.0" MUF="1.0" PDF="260430" > PDF=260400 MemberID=30 </weight>
<weight id="1847" MUR="1.0" MUF="1.0" PDF="260431" > PDF=260400 MemberID=31 </weight>
<weight id="1848" MUR="1.0" MUF="1.0" PDF="260432" > PDF=260400 MemberID=32 </weight>
<weight id="1849" MUR="1.0" MUF="1.0" PDF="260433" > PDF=260400 MemberID=33 </weight>
<weight id="1850" MUR="1.0" MUF="1.0" PDF="260434" > PDF=260400 MemberID=34 </weight>
<weight id="1851" MUR="1.0" MUF="1.0" PDF="260435" > PDF=260400 MemberID=35 </weight>
<weight id="1852" MUR="1.0" MUF="1.0" PDF="260436" > PDF=260400 MemberID=36 </weight>
<weight id="1853" MUR="1.0" MUF="1.0" PDF="260437" > PDF=260400 MemberID=37 </weight>
<weight id="1854" MUR="1.0" MUF="1.0" PDF="260438" > PDF=260400 MemberID=38 </weight>
<weight id="1855" MUR="1.0" MUF="1.0" PDF="260439" > PDF=260400 MemberID=39 </weight>
<weight id="1856" MUR="1.0" MUF="1.0" PDF="260440" > PDF=260400 MemberID=40 </weight>
<weight id="1857" MUR="1.0" MUF="1.0" PDF="260441" > PDF=260400 MemberID=41 </weight>
<weight id="1858" MUR="1.0" MUF="1.0" PDF="260442" > PDF=260400 MemberID=42 </weight>
<weight id="1859" MUR="1.0" MUF="1.0" PDF="260443" > PDF=260400 MemberID=43 </weight>
<weight id="1860" MUR="1.0" MUF="1.0" PDF="260444" > PDF=260400 MemberID=44 </weight>
<weight id="1861" MUR="1.0" MUF="1.0" PDF="260445" > PDF=260400 MemberID=45 </weight>
<weight id="1862" MUR="1.0" MUF="1.0" PDF="260446" > PDF=260400 MemberID=46 </weight>
<weight id="1863" MUR="1.0" MUF="1.0" PDF="260447" > PDF=260400 MemberID=47 </weight>
<weight id="1864" MUR="1.0" MUF="1.0" PDF="260448" > PDF=260400 MemberID=48 </weight>
<weight id="1865" MUR="1.0" MUF="1.0" PDF="260449" > PDF=260400 MemberID=49 </weight>
<weight id="1866" MUR="1.0" MUF="1.0" PDF="260450" > PDF=260400 MemberID=50 </weight>
<weight id="1867" MUR="1.0" MUF="1.0" PDF="260451" > PDF=260400 MemberID=51 </weight>
<weight id="1868" MUR="1.0" MUF="1.0" PDF="260452" > PDF=260400 MemberID=52 </weight>
<weight id="1869" MUR="1.0" MUF="1.0" PDF="260453" > PDF=260400 MemberID=53 </weight>
<weight id="1870" MUR="1.0" MUF="1.0" PDF="260454" > PDF=260400 MemberID=54 </weight>
<weight id="1871" MUR="1.0" MUF="1.0" PDF="260455" > PDF=260400 MemberID=55 </weight>
<weight id="1872" MUR="1.0" MUF="1.0" PDF="260456" > PDF=260400 MemberID=56 </weight>
<weight id="1873" MUR="1.0" MUF="1.0" PDF="260457" > PDF=260400 MemberID=57 </weight>
<weight id="1874" MUR="1.0" MUF="1.0" PDF="260458" > PDF=260400 MemberID=58 </weight>
<weight id="1875" MUR="1.0" MUF="1.0" PDF="260459" > PDF=260400 MemberID=59 </weight>
<weight id="1876" MUR="1.0" MUF="1.0" PDF="260460" > PDF=260400 MemberID=60 </weight>
<weight id="1877" MUR="1.0" MUF="1.0" PDF="260461" > PDF=260400 MemberID=61 </weight>
<weight id="1878" MUR="1.0" MUF="1.0" PDF="260462" > PDF=260400 MemberID=62 </weight>
<weight id="1879" MUR="1.0" MUF="1.0" PDF="260463" > PDF=260400 MemberID=63 </weight>
<weight id="1880" MUR="1.0" MUF="1.0" PDF="260464" > PDF=260400 MemberID=64 </weight>
<weight id="1881" MUR="1.0" MUF="1.0" PDF="260465" > PDF=260400 MemberID=65 </weight>
<weight id="1882" MUR="1.0" MUF="1.0" PDF="260466" > PDF=260400 MemberID=66 </weight>
<weight id="1883" MUR="1.0" MUF="1.0" PDF="260467" > PDF=260400 MemberID=67 </weight>
<weight id="1884" MUR="1.0" MUF="1.0" PDF="260468" > PDF=260400 MemberID=68 </weight>
<weight id="1885" MUR="1.0" MUF="1.0" PDF="260469" > PDF=260400 MemberID=69 </weight>
<weight id="1886" MUR="1.0" MUF="1.0" PDF="260470" > PDF=260400 MemberID=70 </weight>
<weight id="1887" MUR="1.0" MUF="1.0" PDF="260471" > PDF=260400 MemberID=71 </weight>
<weight id="1888" MUR="1.0" MUF="1.0" PDF="260472" > PDF=260400 MemberID=72 </weight>
<weight id="1889" MUR="1.0" MUF="1.0" PDF="260473" > PDF=260400 MemberID=73 </weight>
<weight id="1890" MUR="1.0" MUF="1.0" PDF="260474" > PDF=260400 MemberID=74 </weight>
<weight id="1891" MUR="1.0" MUF="1.0" PDF="260475" > PDF=260400 MemberID=75 </weight>
<weight id="1892" MUR="1.0" MUF="1.0" PDF="260476" > PDF=260400 MemberID=76 </weight>
<weight id="1893" MUR="1.0" MUF="1.0" PDF="260477" > PDF=260400 MemberID=77 </weight>
<weight id="1894" MUR="1.0" MUF="1.0" PDF="260478" > PDF=260400 MemberID=78 </weight>
<weight id="1895" MUR="1.0" MUF="1.0" PDF="260479" > PDF=260400 MemberID=79 </weight>
<weight id="1896" MUR="1.0" MUF="1.0" PDF="260480" > PDF=260400 MemberID=80 </weight>
<weight id="1897" MUR="1.0" MUF="1.0" PDF="260481" > PDF=260400 MemberID=81 </weight>
<weight id="1898" MUR="1.0" MUF="1.0" PDF="260482" > PDF=260400 MemberID=82 </weight>
<weight id="1899" MUR="1.0" MUF="1.0" PDF="260483" > PDF=260400 MemberID=83 </weight>
<weight id="1900" MUR="1.0" MUF="1.0" PDF="260484" > PDF=260400 MemberID=84 </weight>
<weight id="1901" MUR="1.0" MUF="1.0" PDF="260485" > PDF=260400 MemberID=85 </weight>
<weight id="1902" MUR="1.0" MUF="1.0" PDF="260486" > PDF=260400 MemberID=86 </weight>
<weight id="1903" MUR="1.0" MUF="1.0" PDF="260487" > PDF=260400 MemberID=87 </weight>
<weight id="1904" MUR="1.0" MUF="1.0" PDF="260488" > PDF=260400 MemberID=88 </weight>
<weight id="1905" MUR="1.0" MUF="1.0" PDF="260489" > PDF=260400 MemberID=89 </weight>
<weight id="1906" MUR="1.0" MUF="1.0" PDF="260490" > PDF=260400 MemberID=90 </weight>
<weight id="1907" MUR="1.0" MUF="1.0" PDF="260491" > PDF=260400 MemberID=91 </weight>
<weight id="1908" MUR="1.0" MUF="1.0" PDF="260492" > PDF=260400 MemberID=92 </weight>
<weight id="1909" MUR="1.0" MUF="1.0" PDF="260493" > PDF=260400 MemberID=93 </weight>
<weight id="1910" MUR="1.0" MUF="1.0" PDF="260494" > PDF=260400 MemberID=94 </weight>
<weight id="1911" MUR="1.0" MUF="1.0" PDF="260495" > PDF=260400 MemberID=95 </weight>
<weight id="1912" MUR="1.0" MUF="1.0" PDF="260496" > PDF=260400 MemberID=96 </weight>
<weight id="1913" MUR="1.0" MUF="1.0" PDF="260497" > PDF=260400 MemberID=97 </weight>
<weight id="1914" MUR="1.0" MUF="1.0" PDF="260498" > PDF=260400 MemberID=98 </weight>
<weight id="1915" MUR="1.0" MUF="1.0" PDF="260499" > PDF=260400 MemberID=99 </weight>
<weight id="1916" MUR="1.0" MUF="1.0" PDF="260500" > PDF=260400 MemberID=100 </weight>
</weightgroup> # PDFSET -> PDF
<weight id="1917" MUR="1.0" MUF="1.0" PDF="262400" > PDF=262400 MemberID=0 </weight>
<weight id="1918" MUR="1.0" MUF="1.0" PDF="263400" > PDF=263400 MemberID=0 </weight>
<weightgroup name="NNPDF30_nlo_nf_4_pdfas" combine="replicas+as"> # 292000: NNPDF3.0 NLO global fit; mem=0 to mem=100 with alphas(MZ)=0.118, mem=0 ; average on replicas 1-100; mem=1-100 ; PDF replicas with  alphas(MZ)=0.118; mem=101 ; central value for alphas=0.117; mem=102 ; central value for alphas=0.119; maximum number of active flavors NF=4
<weight id="1919" MUR="1.0" MUF="1.0" PDF="292000" > PDF=292000 MemberID=0 </weight>
<weight id="1920" MUR="1.0" MUF="1.0" PDF="292001" > PDF=292000 MemberID=1 </weight>
<weight id="1921" MUR="1.0" MUF="1.0" PDF="292002" > PDF=292000 MemberID=2 </weight>
<weight id="1922" MUR="1.0" MUF="1.0" PDF="292003" > PDF=292000 MemberID=3 </weight>
<weight id="1923" MUR="1.0" MUF="1.0" PDF="292004" > PDF=292000 MemberID=4 </weight>
<weight id="1924" MUR="1.0" MUF="1.0" PDF="292005" > PDF=292000 MemberID=5 </weight>
<weight id="1925" MUR="1.0" MUF="1.0" PDF="292006" > PDF=292000 MemberID=6 </weight>
<weight id="1926" MUR="1.0" MUF="1.0" PDF="292007" > PDF=292000 MemberID=7 </weight>
<weight id="1927" MUR="1.0" MUF="1.0" PDF="292008" > PDF=292000 MemberID=8 </weight>
<weight id="1928" MUR="1.0" MUF="1.0" PDF="292009" > PDF=292000 MemberID=9 </weight>
<weight id="1929" MUR="1.0" MUF="1.0" PDF="292010" > PDF=292000 MemberID=10 </weight>
<weight id="1930" MUR="1.0" MUF="1.0" PDF="292011" > PDF=292000 MemberID=11 </weight>
<weight id="1931" MUR="1.0" MUF="1.0" PDF="292012" > PDF=292000 MemberID=12 </weight>
<weight id="1932" MUR="1.0" MUF="1.0" PDF="292013" > PDF=292000 MemberID=13 </weight>
<weight id="1933" MUR="1.0" MUF="1.0" PDF="292014" > PDF=292000 MemberID=14 </weight>
<weight id="1934" MUR="1.0" MUF="1.0" PDF="292015" > PDF=292000 MemberID=15 </weight>
<weight id="1935" MUR="1.0" MUF="1.0" PDF="292016" > PDF=292000 MemberID=16 </weight>
<weight id="1936" MUR="1.0" MUF="1.0" PDF="292017" > PDF=292000 MemberID=17 </weight>
<weight id="1937" MUR="1.0" MUF="1.0" PDF="292018" > PDF=292000 MemberID=18 </weight>
<weight id="1938" MUR="1.0" MUF="1.0" PDF="292019" > PDF=292000 MemberID=19 </weight>
<weight id="1939" MUR="1.0" MUF="1.0" PDF="292020" > PDF=292000 MemberID=20 </weight>
<weight id="1940" MUR="1.0" MUF="1.0" PDF="292021" > PDF=292000 MemberID=21 </weight>
<weight id="1941" MUR="1.0" MUF="1.0" PDF="292022" > PDF=292000 MemberID=22 </weight>
<weight id="1942" MUR="1.0" MUF="1.0" PDF="292023" > PDF=292000 MemberID=23 </weight>
<weight id="1943" MUR="1.0" MUF="1.0" PDF="292024" > PDF=292000 MemberID=24 </weight>
<weight id="1944" MUR="1.0" MUF="1.0" PDF="292025" > PDF=292000 MemberID=25 </weight>
<weight id="1945" MUR="1.0" MUF="1.0" PDF="292026" > PDF=292000 MemberID=26 </weight>
<weight id="1946" MUR="1.0" MUF="1.0" PDF="292027" > PDF=292000 MemberID=27 </weight>
<weight id="1947" MUR="1.0" MUF="1.0" PDF="292028" > PDF=292000 MemberID=28 </weight>
<weight id="1948" MUR="1.0" MUF="1.0" PDF="292029" > PDF=292000 MemberID=29 </weight>
<weight id="1949" MUR="1.0" MUF="1.0" PDF="292030" > PDF=292000 MemberID=30 </weight>
<weight id="1950" MUR="1.0" MUF="1.0" PDF="292031" > PDF=292000 MemberID=31 </weight>
<weight id="1951" MUR="1.0" MUF="1.0" PDF="292032" > PDF=292000 MemberID=32 </weight>
<weight id="1952" MUR="1.0" MUF="1.0" PDF="292033" > PDF=292000 MemberID=33 </weight>
<weight id="1953" MUR="1.0" MUF="1.0" PDF="292034" > PDF=292000 MemberID=34 </weight>
<weight id="1954" MUR="1.0" MUF="1.0" PDF="292035" > PDF=292000 MemberID=35 </weight>
<weight id="1955" MUR="1.0" MUF="1.0" PDF="292036" > PDF=292000 MemberID=36 </weight>
<weight id="1956" MUR="1.0" MUF="1.0" PDF="292037" > PDF=292000 MemberID=37 </weight>
<weight id="1957" MUR="1.0" MUF="1.0" PDF="292038" > PDF=292000 MemberID=38 </weight>
<weight id="1958" MUR="1.0" MUF="1.0" PDF="292039" > PDF=292000 MemberID=39 </weight>
<weight id="1959" MUR="1.0" MUF="1.0" PDF="292040" > PDF=292000 MemberID=40 </weight>
<weight id="1960" MUR="1.0" MUF="1.0" PDF="292041" > PDF=292000 MemberID=41 </weight>
<weight id="1961" MUR="1.0" MUF="1.0" PDF="292042" > PDF=292000 MemberID=42 </weight>
<weight id="1962" MUR="1.0" MUF="1.0" PDF="292043" > PDF=292000 MemberID=43 </weight>
<weight id="1963" MUR="1.0" MUF="1.0" PDF="292044" > PDF=292000 MemberID=44 </weight>
<weight id="1964" MUR="1.0" MUF="1.0" PDF="292045" > PDF=292000 MemberID=45 </weight>
<weight id="1965" MUR="1.0" MUF="1.0" PDF="292046" > PDF=292000 MemberID=46 </weight>
<weight id="1966" MUR="1.0" MUF="1.0" PDF="292047" > PDF=292000 MemberID=47 </weight>
<weight id="1967" MUR="1.0" MUF="1.0" PDF="292048" > PDF=292000 MemberID=48 </weight>
<weight id="1968" MUR="1.0" MUF="1.0" PDF="292049" > PDF=292000 MemberID=49 </weight>
<weight id="1969" MUR="1.0" MUF="1.0" PDF="292050" > PDF=292000 MemberID=50 </weight>
<weight id="1970" MUR="1.0" MUF="1.0" PDF="292051" > PDF=292000 MemberID=51 </weight>
<weight id="1971" MUR="1.0" MUF="1.0" PDF="292052" > PDF=292000 MemberID=52 </weight>
<weight id="1972" MUR="1.0" MUF="1.0" PDF="292053" > PDF=292000 MemberID=53 </weight>
<weight id="1973" MUR="1.0" MUF="1.0" PDF="292054" > PDF=292000 MemberID=54 </weight>
<weight id="1974" MUR="1.0" MUF="1.0" PDF="292055" > PDF=292000 MemberID=55 </weight>
<weight id="1975" MUR="1.0" MUF="1.0" PDF="292056" > PDF=292000 MemberID=56 </weight>
<weight id="1976" MUR="1.0" MUF="1.0" PDF="292057" > PDF=292000 MemberID=57 </weight>
<weight id="1977" MUR="1.0" MUF="1.0" PDF="292058" > PDF=292000 MemberID=58 </weight>
<weight id="1978" MUR="1.0" MUF="1.0" PDF="292059" > PDF=292000 MemberID=59 </weight>
<weight id="1979" MUR="1.0" MUF="1.0" PDF="292060" > PDF=292000 MemberID=60 </weight>
<weight id="1980" MUR="1.0" MUF="1.0" PDF="292061" > PDF=292000 MemberID=61 </weight>
<weight id="1981" MUR="1.0" MUF="1.0" PDF="292062" > PDF=292000 MemberID=62 </weight>
<weight id="1982" MUR="1.0" MUF="1.0" PDF="292063" > PDF=292000 MemberID=63 </weight>
<weight id="1983" MUR="1.0" MUF="1.0" PDF="292064" > PDF=292000 MemberID=64 </weight>
<weight id="1984" MUR="1.0" MUF="1.0" PDF="292065" > PDF=292000 MemberID=65 </weight>
<weight id="1985" MUR="1.0" MUF="1.0" PDF="292066" > PDF=292000 MemberID=66 </weight>
<weight id="1986" MUR="1.0" MUF="1.0" PDF="292067" > PDF=292000 MemberID=67 </weight>
<weight id="1987" MUR="1.0" MUF="1.0" PDF="292068" > PDF=292000 MemberID=68 </weight>
<weight id="1988" MUR="1.0" MUF="1.0" PDF="292069" > PDF=292000 MemberID=69 </weight>
<weight id="1989" MUR="1.0" MUF="1.0" PDF="292070" > PDF=292000 MemberID=70 </weight>
<weight id="1990" MUR="1.0" MUF="1.0" PDF="292071" > PDF=292000 MemberID=71 </weight>
<weight id="1991" MUR="1.0" MUF="1.0" PDF="292072" > PDF=292000 MemberID=72 </weight>
<weight id="1992" MUR="1.0" MUF="1.0" PDF="292073" > PDF=292000 MemberID=73 </weight>
<weight id="1993" MUR="1.0" MUF="1.0" PDF="292074" > PDF=292000 MemberID=74 </weight>
<weight id="1994" MUR="1.0" MUF="1.0" PDF="292075" > PDF=292000 MemberID=75 </weight>
<weight id="1995" MUR="1.0" MUF="1.0" PDF="292076" > PDF=292000 MemberID=76 </weight>
<weight id="1996" MUR="1.0" MUF="1.0" PDF="292077" > PDF=292000 MemberID=77 </weight>
<weight id="1997" MUR="1.0" MUF="1.0" PDF="292078" > PDF=292000 MemberID=78 </weight>
<weight id="1998" MUR="1.0" MUF="1.0" PDF="292079" > PDF=292000 MemberID=79 </weight>
<weight id="1999" MUR="1.0" MUF="1.0" PDF="292080" > PDF=292000 MemberID=80 </weight>
<weight id="2000" MUR="1.0" MUF="1.0" PDF="292081" > PDF=292000 MemberID=81 </weight>
<weight id="2001" MUR="1.0" MUF="1.0" PDF="292082" > PDF=292000 MemberID=82 </weight>
<weight id="2002" MUR="1.0" MUF="1.0" PDF="292083" > PDF=292000 MemberID=83 </weight>
<weight id="2003" MUR="1.0" MUF="1.0" PDF="292084" > PDF=292000 MemberID=84 </weight>
<weight id="2004" MUR="1.0" MUF="1.0" PDF="292085" > PDF=292000 MemberID=85 </weight>
<weight id="2005" MUR="1.0" MUF="1.0" PDF="292086" > PDF=292000 MemberID=86 </weight>
<weight id="2006" MUR="1.0" MUF="1.0" PDF="292087" > PDF=292000 MemberID=87 </weight>
<weight id="2007" MUR="1.0" MUF="1.0" PDF="292088" > PDF=292000 MemberID=88 </weight>
<weight id="2008" MUR="1.0" MUF="1.0" PDF="292089" > PDF=292000 MemberID=89 </weight>
<weight id="2009" MUR="1.0" MUF="1.0" PDF="292090" > PDF=292000 MemberID=90 </weight>
<weight id="2010" MUR="1.0" MUF="1.0" PDF="292091" > PDF=292000 MemberID=91 </weight>
<weight id="2011" MUR="1.0" MUF="1.0" PDF="292092" > PDF=292000 MemberID=92 </weight>
<weight id="2012" MUR="1.0" MUF="1.0" PDF="292093" > PDF=292000 MemberID=93 </weight>
<weight id="2013" MUR="1.0" MUF="1.0" PDF="292094" > PDF=292000 MemberID=94 </weight>
<weight id="2014" MUR="1.0" MUF="1.0" PDF="292095" > PDF=292000 MemberID=95 </weight>
<weight id="2015" MUR="1.0" MUF="1.0" PDF="292096" > PDF=292000 MemberID=96 </weight>
<weight id="2016" MUR="1.0" MUF="1.0" PDF="292097" > PDF=292000 MemberID=97 </weight>
<weight id="2017" MUR="1.0" MUF="1.0" PDF="292098" > PDF=292000 MemberID=98 </weight>
<weight id="2018" MUR="1.0" MUF="1.0" PDF="292099" > PDF=292000 MemberID=99 </weight>
<weight id="2019" MUR="1.0" MUF="1.0" PDF="292100" > PDF=292000 MemberID=100 </weight>
<weight id="2020" MUR="1.0" MUF="1.0" PDF="292101" > PDF=292000 MemberID=101 </weight>
<weight id="2021" MUR="1.0" MUF="1.0" PDF="292102" > PDF=292000 MemberID=102 </weight>
</weightgroup> # PDFSET -> PDF
<weight id="2022" MUR="1.0" MUF="1.0" PDF="292400" > PDF=292400 MemberID=0 </weight>
</initrwgt>
<MGGenerationInfo>
#  Number of Events        :       1000
#  Integrated weight (pb)   : 0.000123917871318
</MGGenerationInfo>
<madspin>
set seed 411846770
import /afs/cern.ch/work/j/jthomasw/private/IHEP/MCGen/genproductions/bin/MadGraph5_aMCatNLO/tWZj/tWZj_gridpack/work/unweighted_events.lhe.gz
set max_weight_ps_point 400  
set ms_dir ./madspingrid
decay t > w+ b, w+ > all all
decay t~ > w- b~, w- > all all
decay w+ > all all
decay w- > all all
decay z > all all
launch
</madspin>
</header>
<init>
2212 2212 7.000000e+03 7.000000e+03 0 0 325300 325300 -4 2
 8.700660218092E-05 2.883363403671E-06 1.573253220255E-04 1
 7.031876984463E-05 2.474103346374E-06 1.573253220255E-04 2
<generator name='MadGraph5_aMC@NLO' version='2.6.5'>please cite 1405.0301 </generator>
</init>
<event>
14      1 +1.5732536e-04 5.55513000e+02 7.81860800e-03 1.14790200e-01
        2 -1    0    0  501    0 +0.0000000000e+00 +0.0000000000e+00 +2.1975583863e+03 2.1975583863e+03 2.5500000000e-03 0.0000e+00 -1.0000e+00
        5 -1    0    0  502    0 +0.0000000000e+00 +0.0000000000e+00 -2.5358286271e+02 2.5362641475e+02 4.7000000000e+00 0.0000e+00 -1.0000e+00
        2  1    1    2  501    0 +2.1681120016e+01 +3.4574381677e-01 +6.3997706383e+02 6.4034430797e+02 2.5500000000e-03 0.0000e+00 -1.0000e+00
      -24  2    1    2    0    0 +5.8704606339e+01 -1.1417309901e+02 +2.4043705253e+02 2.8469190299e+02 8.2205693575e+01 0.0000e+00 0.0000e+00
      -16  1    4    4    0    0 -7.6279940719e-01 -4.0832100881e+01 +2.1274000106e+01 4.6048077113e+01 0.0000000000e+00 0.0000e+00 1.0000e+00
       15  1    4    4    0    0 +5.9467405746e+01 -7.3340998126e+01 +2.1916305242e+02 2.3864382588e+02 1.7770000000e+00 0.0000e+00 -1.0000e+00
       23  2    1    2    0    0 +3.9999995764e+02 -1.1621549543e+02 +7.9904777888e+02 9.0550755342e+02 8.9222020180e+01 0.0000e+00 0.0000e+00
        1  1    7    7  503    0 +3.0377391654e+02 -1.2490404512e+02 +6.4144867490e+02 7.2064971756e+02 5.0400000000e-03 0.0000e+00 -1.0000e+00
       -1  1    7    7    0  503 +9.6226041098e+01 +8.6885496840e+00 +1.5759910397e+02 1.8485783586e+02 5.0400000000e-03 0.0000e+00 1.0000e+00
        6  2    1    2  502    0 -4.8038568400e+02 +2.3004285062e+02 +2.6451362835e+02 6.2064103667e+02 1.7758862100e+02 0.0000e+00 0.0000e+00
        5  1   10   10  502    0 -1.6882320650e+02 +9.6243990812e+01 +1.7315404631e+02 2.6032401843e+02 4.7000000000e+00 0.0000e+00 -1.0000e+00
       24  2   10   10    0    0 -3.1156247750e+02 +1.3379885981e+02 +9.1359582038e+01 3.6031701824e+02 8.0675077528e+01 0.0000e+00 0.0000e+00
        2  1   12   12  504    0 -1.1135903439e+02 +2.0097622367e+01 +1.5086826923e+00 1.1316812755e+02 2.5500000000e-03 0.0000e+00 -1.0000e+00
       -1  1   12   12    0  504 -2.0020344311e+02 +1.1370123744e+02 +8.9850899345e+01 2.4714889069e+02 5.0400000000e-03 0.0000e+00 1.0000e+00
<mgrwt>
<rscale>  0 0.10975279e+03</rscale>
<asrwt>0</asrwt>
<pdfrwt beam="1">  1        2 0.31393691e+00 0.21683877e+02</pdfrwt>
<pdfrwt beam="2">  1        5 0.36229594e-01 0.55551302e+03</pdfrwt>
<totfact> 0.30858207e+01</totfact>
</mgrwt>
<rwgt>
<wgt id='1001'> +1.5732536e-04 </wgt>
<wgt id='1002'> +1.0813855e-04 </wgt>
<wgt id='1003'> +1.0813845e-04 </wgt>
<wgt id='1004'> +1.0983651e-04 </wgt>
<wgt id='1005'> +1.0722766e-04 </wgt>
<wgt id='1006'> +1.5732536e-04 </wgt>
<wgt id='1007'> +1.0813855e-04 </wgt>
<wgt id='1008'> +1.0813845e-04 </wgt>
<wgt id='1009'> +1.0983651e-04 </wgt>
<wgt id='1010'> +1.0722766e-04 </wgt>
<wgt id='1011'> +1.5732536e-04 </wgt>
<wgt id='1012'> +1.0813855e-04 </wgt>
<wgt id='1013'> +1.0813845e-04 </wgt>
<wgt id='1014'> +1.0983651e-04 </wgt>
<wgt id='1015'> +1.0722766e-04 </wgt>
<wgt id='1016'> +1.5030498e-04 </wgt>
<wgt id='1017'> +1.0579591e-04 </wgt>
<wgt id='1018'> +1.0579578e-04 </wgt>
<wgt id='1019'> +1.0813845e-04 </wgt>
<wgt id='1020'> +1.0469692e-04 </wgt>
<wgt id='1021'> +1.5030498e-04 </wgt>
<wgt id='1022'> +1.0579591e-04 </wgt>
<wgt id='1023'> +1.0579578e-04 </wgt>
<wgt id='1024'> +1.0813845e-04 </wgt>
<wgt id='1025'> +1.0469692e-04 </wgt>
<wgt id='1026'> +1.5030498e-04 </wgt>
<wgt id='1027'> +1.0579591e-04 </wgt>
<wgt id='1028'> +1.0579578e-04 </wgt>
<wgt id='1029'> +1.0813845e-04 </wgt>
<wgt id='1030'> +1.0469692e-04 </wgt>
<wgt id='1031'> +1.6419591e-04 </wgt>
<wgt id='1032'> +1.0983657e-04 </wgt>
<wgt id='1033'> +1.0983651e-04 </wgt>
<wgt id='1034'> +1.1047266e-04 </wgt>
<wgt id='1035'> +1.0922953e-04 </wgt>
<wgt id='1036'> +1.6419591e-04 </wgt>
<wgt id='1037'> +1.0983657e-04 </wgt>
<wgt id='1038'> +1.0983651e-04 </wgt>
<wgt id='1039'> +1.1047266e-04 </wgt>
<wgt id='1040'> +1.0922953e-04 </wgt>
<wgt id='1041'> +1.6419591e-04 </wgt>
<wgt id='1042'> +1.0983657e-04 </wgt>
<wgt id='1043'> +1.0983651e-04 </wgt>
<wgt id='1044'> +1.1047266e-04 </wgt>
<wgt id='1045'> +1.0922953e-04 </wgt>
<wgt id='1046'> +1.5732536e-04 </wgt>
<wgt id='1047'> +1.5732536e-04 </wgt>
<wgt id='1048'> +0.0000000e+00 </wgt>
<wgt id='1049'> +0.0000000e+00 </wgt>
<wgt id='1050'> +0.0000000e+00 </wgt>
<wgt id='1051'> +0.0000000e+00 </wgt>
<wgt id='1052'> +0.0000000e+00 </wgt>
<wgt id='1053'> +0.0000000e+00 </wgt>
<wgt id='1054'> +0.0000000e+00 </wgt>
<wgt id='1055'> +0.0000000e+00 </wgt>
<wgt id='1056'> +0.0000000e+00 </wgt>
<wgt id='1057'> +0.0000000e+00 </wgt>
<wgt id='1058'> +0.0000000e+00 </wgt>
<wgt id='1059'> +0.0000000e+00 </wgt>
<wgt id='1060'> +0.0000000e+00 </wgt>
<wgt id='1061'> +0.0000000e+00 </wgt>
<wgt id='1062'> +0.0000000e+00 </wgt>
<wgt id='1063'> +0.0000000e+00 </wgt>
<wgt id='1064'> +0.0000000e+00 </wgt>
<wgt id='1065'> +0.0000000e+00 </wgt>
<wgt id='1066'> +0.0000000e+00 </wgt>
<wgt id='1067'> +0.0000000e+00 </wgt>
<wgt id='1068'> +0.0000000e+00 </wgt>
<wgt id='1069'> +0.0000000e+00 </wgt>
<wgt id='1070'> +0.0000000e+00 </wgt>
<wgt id='1071'> +0.0000000e+00 </wgt>
<wgt id='1072'> +0.0000000e+00 </wgt>
<wgt id='1073'> +0.0000000e+00 </wgt>
<wgt id='1074'> +0.0000000e+00 </wgt>
<wgt id='1075'> +0.0000000e+00 </wgt>
<wgt id='1076'> +0.0000000e+00 </wgt>
<wgt id='1077'> +0.0000000e+00 </wgt>
<wgt id='1078'> +0.0000000e+00 </wgt>
<wgt id='1079'> +0.0000000e+00 </wgt>
<wgt id='1080'> +0.0000000e+00 </wgt>
<wgt id='1081'> +0.0000000e+00 </wgt>
<wgt id='1082'> +0.0000000e+00 </wgt>
<wgt id='1083'> +0.0000000e+00 </wgt>
<wgt id='1084'> +0.0000000e+00 </wgt>
<wgt id='1085'> +0.0000000e+00 </wgt>
<wgt id='1086'> +0.0000000e+00 </wgt>
<wgt id='1087'> +0.0000000e+00 </wgt>
<wgt id='1088'> +0.0000000e+00 </wgt>
<wgt id='1089'> +0.0000000e+00 </wgt>
<wgt id='1090'> +0.0000000e+00 </wgt>
<wgt id='1091'> +0.0000000e+00 </wgt>
<wgt id='1092'> +0.0000000e+00 </wgt>
<wgt id='1093'> +0.0000000e+00 </wgt>
<wgt id='1094'> +0.0000000e+00 </wgt>
<wgt id='1095'> +0.0000000e+00 </wgt>
<wgt id='1096'> +0.0000000e+00 </wgt>
<wgt id='1097'> +0.0000000e+00 </wgt>
<wgt id='1098'> +0.0000000e+00 </wgt>
<wgt id='1099'> +0.0000000e+00 </wgt>
<wgt id='1100'> +0.0000000e+00 </wgt>
<wgt id='1101'> +0.0000000e+00 </wgt>
<wgt id='1102'> +0.0000000e+00 </wgt>
<wgt id='1103'> +0.0000000e+00 </wgt>
<wgt id='1104'> +0.0000000e+00 </wgt>
<wgt id='1105'> +0.0000000e+00 </wgt>
<wgt id='1106'> +0.0000000e+00 </wgt>
<wgt id='1107'> +0.0000000e+00 </wgt>
<wgt id='1108'> +0.0000000e+00 </wgt>
<wgt id='1109'> +0.0000000e+00 </wgt>
<wgt id='1110'> +0.0000000e+00 </wgt>
<wgt id='1111'> +0.0000000e+00 </wgt>
<wgt id='1112'> +0.0000000e+00 </wgt>
<wgt id='1113'> +0.0000000e+00 </wgt>
<wgt id='1114'> +0.0000000e+00 </wgt>
<wgt id='1115'> +0.0000000e+00 </wgt>
<wgt id='1116'> +0.0000000e+00 </wgt>
<wgt id='1117'> +0.0000000e+00 </wgt>
<wgt id='1118'> +0.0000000e+00 </wgt>
<wgt id='1119'> +0.0000000e+00 </wgt>
<wgt id='1120'> +0.0000000e+00 </wgt>
<wgt id='1121'> +0.0000000e+00 </wgt>
<wgt id='1122'> +0.0000000e+00 </wgt>
<wgt id='1123'> +0.0000000e+00 </wgt>
<wgt id='1124'> +0.0000000e+00 </wgt>
<wgt id='1125'> +0.0000000e+00 </wgt>
<wgt id='1126'> +0.0000000e+00 </wgt>
<wgt id='1127'> +0.0000000e+00 </wgt>
<wgt id='1128'> +0.0000000e+00 </wgt>
<wgt id='1129'> +0.0000000e+00 </wgt>
<wgt id='1130'> +0.0000000e+00 </wgt>
<wgt id='1131'> +0.0000000e+00 </wgt>
<wgt id='1132'> +0.0000000e+00 </wgt>
<wgt id='1133'> +0.0000000e+00 </wgt>
<wgt id='1134'> +0.0000000e+00 </wgt>
<wgt id='1135'> +0.0000000e+00 </wgt>
<wgt id='1136'> +0.0000000e+00 </wgt>
<wgt id='1137'> +0.0000000e+00 </wgt>
<wgt id='1138'> +0.0000000e+00 </wgt>
<wgt id='1139'> +0.0000000e+00 </wgt>
<wgt id='1140'> +0.0000000e+00 </wgt>
<wgt id='1141'> +0.0000000e+00 </wgt>
<wgt id='1142'> +0.0000000e+00 </wgt>
<wgt id='1143'> +0.0000000e+00 </wgt>
<wgt id='1144'> +0.0000000e+00 </wgt>
<wgt id='1145'> +0.0000000e+00 </wgt>
<wgt id='1146'> +0.0000000e+00 </wgt>
<wgt id='1147'> +0.0000000e+00 </wgt>
<wgt id='1148'> +0.0000000e+00 </wgt>
<wgt id='1149'> +0.0000000e+00 </wgt>
<wgt id='1150'> +0.0000000e+00 </wgt>
<wgt id='1151'> +0.0000000e+00 </wgt>
<wgt id='1152'> +0.0000000e+00 </wgt>
<wgt id='1153'> +0.0000000e+00 </wgt>
<wgt id='1154'> +0.0000000e+00 </wgt>
<wgt id='1155'> +0.0000000e+00 </wgt>
<wgt id='1156'> +0.0000000e+00 </wgt>
<wgt id='1157'> +0.0000000e+00 </wgt>
<wgt id='1158'> +0.0000000e+00 </wgt>
<wgt id='1159'> +0.0000000e+00 </wgt>
<wgt id='1160'> +0.0000000e+00 </wgt>
<wgt id='1161'> +0.0000000e+00 </wgt>
<wgt id='1162'> +0.0000000e+00 </wgt>
<wgt id='1163'> +0.0000000e+00 </wgt>
<wgt id='1164'> +0.0000000e+00 </wgt>
<wgt id='1165'> +0.0000000e+00 </wgt>
<wgt id='1166'> +0.0000000e+00 </wgt>
<wgt id='1167'> +0.0000000e+00 </wgt>
<wgt id='1168'> +0.0000000e+00 </wgt>
<wgt id='1169'> +0.0000000e+00 </wgt>
<wgt id='1170'> +0.0000000e+00 </wgt>
<wgt id='1171'> +0.0000000e+00 </wgt>
<wgt id='1172'> +0.0000000e+00 </wgt>
<wgt id='1173'> +0.0000000e+00 </wgt>
<wgt id='1174'> +0.0000000e+00 </wgt>
<wgt id='1175'> +0.0000000e+00 </wgt>
<wgt id='1176'> +0.0000000e+00 </wgt>
<wgt id='1177'> +0.0000000e+00 </wgt>
<wgt id='1178'> +0.0000000e+00 </wgt>
<wgt id='1179'> +0.0000000e+00 </wgt>
<wgt id='1180'> +0.0000000e+00 </wgt>
<wgt id='1181'> +0.0000000e+00 </wgt>
<wgt id='1182'> +0.0000000e+00 </wgt>
<wgt id='1183'> +0.0000000e+00 </wgt>
<wgt id='1184'> +0.0000000e+00 </wgt>
<wgt id='1185'> +0.0000000e+00 </wgt>
<wgt id='1186'> +0.0000000e+00 </wgt>
<wgt id='1187'> +0.0000000e+00 </wgt>
<wgt id='1188'> +0.0000000e+00 </wgt>
<wgt id='1189'> +0.0000000e+00 </wgt>
<wgt id='1190'> +0.0000000e+00 </wgt>
<wgt id='1191'> +0.0000000e+00 </wgt>
<wgt id='1192'> +0.0000000e+00 </wgt>
<wgt id='1193'> +0.0000000e+00 </wgt>
<wgt id='1194'> +0.0000000e+00 </wgt>
<wgt id='1195'> +0.0000000e+00 </wgt>
<wgt id='1196'> +0.0000000e+00 </wgt>
<wgt id='1197'> +0.0000000e+00 </wgt>
<wgt id='1198'> +0.0000000e+00 </wgt>
<wgt id='1199'> +0.0000000e+00 </wgt>
<wgt id='1200'> +0.0000000e+00 </wgt>
<wgt id='1201'> +0.0000000e+00 </wgt>
<wgt id='1202'> +0.0000000e+00 </wgt>
<wgt id='1203'> +0.0000000e+00 </wgt>
<wgt id='1204'> +0.0000000e+00 </wgt>
<wgt id='1205'> +0.0000000e+00 </wgt>
<wgt id='1206'> +0.0000000e+00 </wgt>
<wgt id='1207'> +0.0000000e+00 </wgt>
<wgt id='1208'> +0.0000000e+00 </wgt>
<wgt id='1209'> +0.0000000e+00 </wgt>
<wgt id='1210'> +0.0000000e+00 </wgt>
<wgt id='1211'> +0.0000000e+00 </wgt>
<wgt id='1212'> +0.0000000e+00 </wgt>
<wgt id='1213'> +0.0000000e+00 </wgt>
<wgt id='1214'> +0.0000000e+00 </wgt>
<wgt id='1215'> +0.0000000e+00 </wgt>
<wgt id='1216'> +0.0000000e+00 </wgt>
<wgt id='1217'> +0.0000000e+00 </wgt>
<wgt id='1218'> +0.0000000e+00 </wgt>
<wgt id='1219'> +0.0000000e+00 </wgt>
<wgt id='1220'> +0.0000000e+00 </wgt>
<wgt id='1221'> +0.0000000e+00 </wgt>
<wgt id='1222'> +0.0000000e+00 </wgt>
<wgt id='1223'> +0.0000000e+00 </wgt>
<wgt id='1224'> +0.0000000e+00 </wgt>
<wgt id='1225'> +0.0000000e+00 </wgt>
<wgt id='1226'> +0.0000000e+00 </wgt>
<wgt id='1227'> +0.0000000e+00 </wgt>
<wgt id='1228'> +0.0000000e+00 </wgt>
<wgt id='1229'> +0.0000000e+00 </wgt>
<wgt id='1230'> +0.0000000e+00 </wgt>
<wgt id='1231'> +0.0000000e+00 </wgt>
<wgt id='1232'> +0.0000000e+00 </wgt>
<wgt id='1233'> +0.0000000e+00 </wgt>
<wgt id='1234'> +0.0000000e+00 </wgt>
<wgt id='1235'> +0.0000000e+00 </wgt>
<wgt id='1236'> +0.0000000e+00 </wgt>
<wgt id='1237'> +0.0000000e+00 </wgt>
<wgt id='1238'> +0.0000000e+00 </wgt>
<wgt id='1239'> +0.0000000e+00 </wgt>
<wgt id='1240'> +0.0000000e+00 </wgt>
<wgt id='1241'> +0.0000000e+00 </wgt>
<wgt id='1242'> +0.0000000e+00 </wgt>
<wgt id='1243'> +0.0000000e+00 </wgt>
<wgt id='1244'> +0.0000000e+00 </wgt>
<wgt id='1245'> +0.0000000e+00 </wgt>
<wgt id='1246'> +0.0000000e+00 </wgt>
<wgt id='1247'> +0.0000000e+00 </wgt>
<wgt id='1248'> +0.0000000e+00 </wgt>
<wgt id='1249'> +0.0000000e+00 </wgt>
<wgt id='1250'> +0.0000000e+00 </wgt>
<wgt id='1251'> +0.0000000e+00 </wgt>
<wgt id='1252'> +0.0000000e+00 </wgt>
<wgt id='1253'> +0.0000000e+00 </wgt>
<wgt id='1254'> +0.0000000e+00 </wgt>
<wgt id='1255'> +0.0000000e+00 </wgt>
<wgt id='1256'> +0.0000000e+00 </wgt>
<wgt id='1257'> +0.0000000e+00 </wgt>
<wgt id='1258'> +0.0000000e+00 </wgt>
<wgt id='1259'> +0.0000000e+00 </wgt>
<wgt id='1260'> +0.0000000e+00 </wgt>
<wgt id='1261'> +0.0000000e+00 </wgt>
<wgt id='1262'> +0.0000000e+00 </wgt>
<wgt id='1263'> +0.0000000e+00 </wgt>
<wgt id='1264'> +0.0000000e+00 </wgt>
<wgt id='1265'> +0.0000000e+00 </wgt>
<wgt id='1266'> +0.0000000e+00 </wgt>
<wgt id='1267'> +0.0000000e+00 </wgt>
<wgt id='1268'> +0.0000000e+00 </wgt>
<wgt id='1269'> +0.0000000e+00 </wgt>
<wgt id='1270'> +0.0000000e+00 </wgt>
<wgt id='1271'> +0.0000000e+00 </wgt>
<wgt id='1272'> +0.0000000e+00 </wgt>
<wgt id='1273'> +0.0000000e+00 </wgt>
<wgt id='1274'> +0.0000000e+00 </wgt>
<wgt id='1275'> +0.0000000e+00 </wgt>
<wgt id='1276'> +0.0000000e+00 </wgt>
<wgt id='1277'> +0.0000000e+00 </wgt>
<wgt id='1278'> +0.0000000e+00 </wgt>
<wgt id='1279'> +0.0000000e+00 </wgt>
<wgt id='1280'> +0.0000000e+00 </wgt>
<wgt id='1281'> +0.0000000e+00 </wgt>
<wgt id='1282'> +0.0000000e+00 </wgt>
<wgt id='1283'> +0.0000000e+00 </wgt>
<wgt id='1284'> +0.0000000e+00 </wgt>
<wgt id='1285'> +0.0000000e+00 </wgt>
<wgt id='1286'> +0.0000000e+00 </wgt>
<wgt id='1287'> +0.0000000e+00 </wgt>
<wgt id='1288'> +0.0000000e+00 </wgt>
<wgt id='1289'> +0.0000000e+00 </wgt>
<wgt id='1290'> +0.0000000e+00 </wgt>
<wgt id='1291'> +0.0000000e+00 </wgt>
<wgt id='1292'> +0.0000000e+00 </wgt>
<wgt id='1293'> +0.0000000e+00 </wgt>
<wgt id='1294'> +0.0000000e+00 </wgt>
<wgt id='1295'> +0.0000000e+00 </wgt>
<wgt id='1296'> +0.0000000e+00 </wgt>
<wgt id='1297'> +0.0000000e+00 </wgt>
<wgt id='1298'> +0.0000000e+00 </wgt>
<wgt id='1299'> +0.0000000e+00 </wgt>
<wgt id='1300'> +0.0000000e+00 </wgt>
<wgt id='1301'> +0.0000000e+00 </wgt>
<wgt id='1302'> +0.0000000e+00 </wgt>
<wgt id='1303'> +0.0000000e+00 </wgt>
<wgt id='1304'> +0.0000000e+00 </wgt>
<wgt id='1305'> +0.0000000e+00 </wgt>
<wgt id='1306'> +0.0000000e+00 </wgt>
<wgt id='1307'> +0.0000000e+00 </wgt>
<wgt id='1308'> +0.0000000e+00 </wgt>
<wgt id='1309'> +0.0000000e+00 </wgt>
<wgt id='1310'> +0.0000000e+00 </wgt>
<wgt id='1311'> +0.0000000e+00 </wgt>
<wgt id='1312'> +0.0000000e+00 </wgt>
<wgt id='1313'> +0.0000000e+00 </wgt>
<wgt id='1314'> +0.0000000e+00 </wgt>
<wgt id='1315'> +0.0000000e+00 </wgt>
<wgt id='1316'> +0.0000000e+00 </wgt>
<wgt id='1317'> +0.0000000e+00 </wgt>
<wgt id='1318'> +0.0000000e+00 </wgt>
<wgt id='1319'> +0.0000000e+00 </wgt>
<wgt id='1320'> +0.0000000e+00 </wgt>
<wgt id='1321'> +0.0000000e+00 </wgt>
<wgt id='1322'> +0.0000000e+00 </wgt>
<wgt id='1323'> +0.0000000e+00 </wgt>
<wgt id='1324'> +0.0000000e+00 </wgt>
<wgt id='1325'> +0.0000000e+00 </wgt>
<wgt id='1326'> +0.0000000e+00 </wgt>
<wgt id='1327'> +0.0000000e+00 </wgt>
<wgt id='1328'> +0.0000000e+00 </wgt>
<wgt id='1329'> +0.0000000e+00 </wgt>
<wgt id='1330'> +0.0000000e+00 </wgt>
<wgt id='1331'> +0.0000000e+00 </wgt>
<wgt id='1332'> +0.0000000e+00 </wgt>
<wgt id='1333'> +0.0000000e+00 </wgt>
<wgt id='1334'> +0.0000000e+00 </wgt>
<wgt id='1335'> +0.0000000e+00 </wgt>
<wgt id='1336'> +0.0000000e+00 </wgt>
<wgt id='1337'> +0.0000000e+00 </wgt>
<wgt id='1338'> +0.0000000e+00 </wgt>
<wgt id='1339'> +0.0000000e+00 </wgt>
<wgt id='1340'> +0.0000000e+00 </wgt>
<wgt id='1341'> +0.0000000e+00 </wgt>
<wgt id='1342'> +0.0000000e+00 </wgt>
<wgt id='1343'> +0.0000000e+00 </wgt>
<wgt id='1344'> +0.0000000e+00 </wgt>
<wgt id='1345'> +0.0000000e+00 </wgt>
<wgt id='1346'> +0.0000000e+00 </wgt>
<wgt id='1347'> +0.0000000e+00 </wgt>
<wgt id='1348'> +0.0000000e+00 </wgt>
<wgt id='1349'> +0.0000000e+00 </wgt>
<wgt id='1350'> +0.0000000e+00 </wgt>
<wgt id='1351'> +0.0000000e+00 </wgt>
<wgt id='1352'> +0.0000000e+00 </wgt>
<wgt id='1353'> +0.0000000e+00 </wgt>
<wgt id='1354'> +0.0000000e+00 </wgt>
<wgt id='1355'> +0.0000000e+00 </wgt>
<wgt id='1356'> +0.0000000e+00 </wgt>
<wgt id='1357'> +0.0000000e+00 </wgt>
<wgt id='1358'> +0.0000000e+00 </wgt>
<wgt id='1359'> +0.0000000e+00 </wgt>
<wgt id='1360'> +0.0000000e+00 </wgt>
<wgt id='1361'> +0.0000000e+00 </wgt>
<wgt id='1362'> +0.0000000e+00 </wgt>
<wgt id='1363'> +0.0000000e+00 </wgt>
<wgt id='1364'> +0.0000000e+00 </wgt>
<wgt id='1365'> +0.0000000e+00 </wgt>
<wgt id='1366'> +0.0000000e+00 </wgt>
<wgt id='1367'> +0.0000000e+00 </wgt>
<wgt id='1368'> +0.0000000e+00 </wgt>
<wgt id='1369'> +0.0000000e+00 </wgt>
<wgt id='1370'> +0.0000000e+00 </wgt>
<wgt id='1371'> +0.0000000e+00 </wgt>
<wgt id='1372'> +0.0000000e+00 </wgt>
<wgt id='1373'> +0.0000000e+00 </wgt>
<wgt id='1374'> +0.0000000e+00 </wgt>
<wgt id='1375'> +0.0000000e+00 </wgt>
<wgt id='1376'> +0.0000000e+00 </wgt>
<wgt id='1377'> +0.0000000e+00 </wgt>
<wgt id='1378'> +0.0000000e+00 </wgt>
<wgt id='1379'> +0.0000000e+00 </wgt>
<wgt id='1380'> +0.0000000e+00 </wgt>
<wgt id='1381'> +0.0000000e+00 </wgt>
<wgt id='1382'> +0.0000000e+00 </wgt>
<wgt id='1383'> +0.0000000e+00 </wgt>
<wgt id='1384'> +0.0000000e+00 </wgt>
<wgt id='1385'> +0.0000000e+00 </wgt>
<wgt id='1386'> +0.0000000e+00 </wgt>
<wgt id='1387'> +0.0000000e+00 </wgt>
<wgt id='1388'> +0.0000000e+00 </wgt>
<wgt id='1389'> +0.0000000e+00 </wgt>
<wgt id='1390'> +0.0000000e+00 </wgt>
<wgt id='1391'> +0.0000000e+00 </wgt>
<wgt id='1392'> +0.0000000e+00 </wgt>
<wgt id='1393'> +0.0000000e+00 </wgt>
<wgt id='1394'> +0.0000000e+00 </wgt>
<wgt id='1395'> +0.0000000e+00 </wgt>
<wgt id='1396'> +0.0000000e+00 </wgt>
<wgt id='1397'> +0.0000000e+00 </wgt>
<wgt id='1398'> +0.0000000e+00 </wgt>
<wgt id='1399'> +0.0000000e+00 </wgt>
<wgt id='1400'> +0.0000000e+00 </wgt>
<wgt id='1401'> +0.0000000e+00 </wgt>
<wgt id='1402'> +0.0000000e+00 </wgt>
<wgt id='1403'> +0.0000000e+00 </wgt>
<wgt id='1404'> +0.0000000e+00 </wgt>
<wgt id='1405'> +0.0000000e+00 </wgt>
<wgt id='1406'> +0.0000000e+00 </wgt>
<wgt id='1407'> +0.0000000e+00 </wgt>
<wgt id='1408'> +0.0000000e+00 </wgt>
<wgt id='1409'> +0.0000000e+00 </wgt>
<wgt id='1410'> +0.0000000e+00 </wgt>
<wgt id='1411'> +0.0000000e+00 </wgt>
<wgt id='1412'> +0.0000000e+00 </wgt>
<wgt id='1413'> +0.0000000e+00 </wgt>
<wgt id='1414'> +0.0000000e+00 </wgt>
<wgt id='1415'> +0.0000000e+00 </wgt>
<wgt id='1416'> +0.0000000e+00 </wgt>
<wgt id='1417'> +0.0000000e+00 </wgt>
<wgt id='1418'> +0.0000000e+00 </wgt>
<wgt id='1419'> +0.0000000e+00 </wgt>
<wgt id='1420'> +0.0000000e+00 </wgt>
<wgt id='1421'> +0.0000000e+00 </wgt>
<wgt id='1422'> +0.0000000e+00 </wgt>
<wgt id='1423'> +0.0000000e+00 </wgt>
<wgt id='1424'> +0.0000000e+00 </wgt>
<wgt id='1425'> +0.0000000e+00 </wgt>
<wgt id='1426'> +0.0000000e+00 </wgt>
<wgt id='1427'> +0.0000000e+00 </wgt>
<wgt id='1428'> +0.0000000e+00 </wgt>
<wgt id='1429'> +0.0000000e+00 </wgt>
<wgt id='1430'> +0.0000000e+00 </wgt>
<wgt id='1431'> +0.0000000e+00 </wgt>
<wgt id='1432'> +0.0000000e+00 </wgt>
<wgt id='1433'> +0.0000000e+00 </wgt>
<wgt id='1434'> +0.0000000e+00 </wgt>
<wgt id='1435'> +0.0000000e+00 </wgt>
<wgt id='1436'> +0.0000000e+00 </wgt>
<wgt id='1437'> +0.0000000e+00 </wgt>
<wgt id='1438'> +0.0000000e+00 </wgt>
<wgt id='1439'> +0.0000000e+00 </wgt>
<wgt id='1440'> +0.0000000e+00 </wgt>
<wgt id='1441'> +0.0000000e+00 </wgt>
<wgt id='1442'> +0.0000000e+00 </wgt>
<wgt id='1443'> +0.0000000e+00 </wgt>
<wgt id='1444'> +0.0000000e+00 </wgt>
<wgt id='1445'> +0.0000000e+00 </wgt>
<wgt id='1446'> +0.0000000e+00 </wgt>
<wgt id='1447'> +0.0000000e+00 </wgt>
<wgt id='1448'> +0.0000000e+00 </wgt>
<wgt id='1449'> +0.0000000e+00 </wgt>
<wgt id='1450'> +0.0000000e+00 </wgt>
<wgt id='1451'> +0.0000000e+00 </wgt>
<wgt id='1452'> +0.0000000e+00 </wgt>
<wgt id='1453'> +0.0000000e+00 </wgt>
<wgt id='1454'> +0.0000000e+00 </wgt>
<wgt id='1455'> +0.0000000e+00 </wgt>
<wgt id='1456'> +0.0000000e+00 </wgt>
<wgt id='1457'> +0.0000000e+00 </wgt>
<wgt id='1458'> +0.0000000e+00 </wgt>
<wgt id='1459'> +0.0000000e+00 </wgt>
<wgt id='1460'> +0.0000000e+00 </wgt>
<wgt id='1461'> +0.0000000e+00 </wgt>
<wgt id='1462'> +0.0000000e+00 </wgt>
<wgt id='1463'> +0.0000000e+00 </wgt>
<wgt id='1464'> +0.0000000e+00 </wgt>
<wgt id='1465'> +0.0000000e+00 </wgt>
<wgt id='1466'> +0.0000000e+00 </wgt>
<wgt id='1467'> +0.0000000e+00 </wgt>
<wgt id='1468'> +0.0000000e+00 </wgt>
<wgt id='1469'> +0.0000000e+00 </wgt>
<wgt id='1470'> +0.0000000e+00 </wgt>
<wgt id='1471'> +0.0000000e+00 </wgt>
<wgt id='1472'> +0.0000000e+00 </wgt>
<wgt id='1473'> +0.0000000e+00 </wgt>
<wgt id='1474'> +0.0000000e+00 </wgt>
<wgt id='1475'> +0.0000000e+00 </wgt>
<wgt id='1476'> +0.0000000e+00 </wgt>
<wgt id='1477'> +0.0000000e+00 </wgt>
<wgt id='1478'> +0.0000000e+00 </wgt>
<wgt id='1479'> +0.0000000e+00 </wgt>
<wgt id='1480'> +0.0000000e+00 </wgt>
<wgt id='1481'> +0.0000000e+00 </wgt>
<wgt id='1482'> +0.0000000e+00 </wgt>
<wgt id='1483'> +0.0000000e+00 </wgt>
<wgt id='1484'> +0.0000000e+00 </wgt>
<wgt id='1485'> +0.0000000e+00 </wgt>
<wgt id='1486'> +0.0000000e+00 </wgt>
<wgt id='1487'> +0.0000000e+00 </wgt>
<wgt id='1488'> +0.0000000e+00 </wgt>
<wgt id='1489'> +0.0000000e+00 </wgt>
<wgt id='1490'> +0.0000000e+00 </wgt>
<wgt id='1491'> +0.0000000e+00 </wgt>
<wgt id='1492'> +0.0000000e+00 </wgt>
<wgt id='1493'> +0.0000000e+00 </wgt>
<wgt id='1494'> +0.0000000e+00 </wgt>
<wgt id='1495'> +0.0000000e+00 </wgt>
<wgt id='1496'> +0.0000000e+00 </wgt>
<wgt id='1497'> +0.0000000e+00 </wgt>
<wgt id='1498'> +0.0000000e+00 </wgt>
<wgt id='1499'> +0.0000000e+00 </wgt>
<wgt id='1500'> +0.0000000e+00 </wgt>
<wgt id='1501'> +0.0000000e+00 </wgt>
<wgt id='1502'> +0.0000000e+00 </wgt>
<wgt id='1503'> +0.0000000e+00 </wgt>
<wgt id='1504'> +0.0000000e+00 </wgt>
<wgt id='1505'> +0.0000000e+00 </wgt>
<wgt id='1506'> +0.0000000e+00 </wgt>
<wgt id='1507'> +0.0000000e+00 </wgt>
<wgt id='1508'> +0.0000000e+00 </wgt>
<wgt id='1509'> +0.0000000e+00 </wgt>
<wgt id='1510'> +0.0000000e+00 </wgt>
<wgt id='1511'> +0.0000000e+00 </wgt>
<wgt id='1512'> +0.0000000e+00 </wgt>
<wgt id='1513'> +0.0000000e+00 </wgt>
<wgt id='1514'> +0.0000000e+00 </wgt>
<wgt id='1515'> +0.0000000e+00 </wgt>
<wgt id='1516'> +0.0000000e+00 </wgt>
<wgt id='1517'> +0.0000000e+00 </wgt>
<wgt id='1518'> +0.0000000e+00 </wgt>
<wgt id='1519'> +0.0000000e+00 </wgt>
<wgt id='1520'> +0.0000000e+00 </wgt>
<wgt id='1521'> +0.0000000e+00 </wgt>
<wgt id='1522'> +0.0000000e+00 </wgt>
<wgt id='1523'> +0.0000000e+00 </wgt>
<wgt id='1524'> +0.0000000e+00 </wgt>
<wgt id='1525'> +0.0000000e+00 </wgt>
<wgt id='1526'> +0.0000000e+00 </wgt>
<wgt id='1527'> +0.0000000e+00 </wgt>
<wgt id='1528'> +0.0000000e+00 </wgt>
<wgt id='1529'> +0.0000000e+00 </wgt>
<wgt id='1530'> +0.0000000e+00 </wgt>
<wgt id='1531'> +0.0000000e+00 </wgt>
<wgt id='1532'> +0.0000000e+00 </wgt>
<wgt id='1533'> +0.0000000e+00 </wgt>
<wgt id='1534'> +0.0000000e+00 </wgt>
<wgt id='1535'> +0.0000000e+00 </wgt>
<wgt id='1536'> +0.0000000e+00 </wgt>
<wgt id='1537'> +0.0000000e+00 </wgt>
<wgt id='1538'> +0.0000000e+00 </wgt>
<wgt id='1539'> +0.0000000e+00 </wgt>
<wgt id='1540'> +0.0000000e+00 </wgt>
<wgt id='1541'> +0.0000000e+00 </wgt>
<wgt id='1542'> +0.0000000e+00 </wgt>
<wgt id='1543'> +0.0000000e+00 </wgt>
<wgt id='1544'> +0.0000000e+00 </wgt>
<wgt id='1545'> +0.0000000e+00 </wgt>
<wgt id='1546'> +0.0000000e+00 </wgt>
<wgt id='1547'> +0.0000000e+00 </wgt>
<wgt id='1548'> +0.0000000e+00 </wgt>
<wgt id='1549'> +0.0000000e+00 </wgt>
<wgt id='1550'> +0.0000000e+00 </wgt>
<wgt id='1551'> +0.0000000e+00 </wgt>
<wgt id='1552'> +0.0000000e+00 </wgt>
<wgt id='1553'> +0.0000000e+00 </wgt>
<wgt id='1554'> +0.0000000e+00 </wgt>
<wgt id='1555'> +0.0000000e+00 </wgt>
<wgt id='1556'> +0.0000000e+00 </wgt>
<wgt id='1557'> +0.0000000e+00 </wgt>
<wgt id='1558'> +0.0000000e+00 </wgt>
<wgt id='1559'> +0.0000000e+00 </wgt>
<wgt id='1560'> +0.0000000e+00 </wgt>
<wgt id='1561'> +0.0000000e+00 </wgt>
<wgt id='1562'> +0.0000000e+00 </wgt>
<wgt id='1563'> +0.0000000e+00 </wgt>
<wgt id='1564'> +0.0000000e+00 </wgt>
<wgt id='1565'> +0.0000000e+00 </wgt>
<wgt id='1566'> +0.0000000e+00 </wgt>
<wgt id='1567'> +0.0000000e+00 </wgt>
<wgt id='1568'> +0.0000000e+00 </wgt>
<wgt id='1569'> +0.0000000e+00 </wgt>
<wgt id='1570'> +0.0000000e+00 </wgt>
<wgt id='1571'> +0.0000000e+00 </wgt>
<wgt id='1572'> +0.0000000e+00 </wgt>
<wgt id='1573'> +0.0000000e+00 </wgt>
<wgt id='1574'> +0.0000000e+00 </wgt>
<wgt id='1575'> +0.0000000e+00 </wgt>
<wgt id='1576'> +0.0000000e+00 </wgt>
<wgt id='1577'> +0.0000000e+00 </wgt>
<wgt id='1578'> +0.0000000e+00 </wgt>
<wgt id='1579'> +0.0000000e+00 </wgt>
<wgt id='1580'> +0.0000000e+00 </wgt>
<wgt id='1581'> +0.0000000e+00 </wgt>
<wgt id='1582'> +0.0000000e+00 </wgt>
<wgt id='1583'> +0.0000000e+00 </wgt>
<wgt id='1584'> +0.0000000e+00 </wgt>
<wgt id='1585'> +0.0000000e+00 </wgt>
<wgt id='1586'> +0.0000000e+00 </wgt>
<wgt id='1587'> +0.0000000e+00 </wgt>
<wgt id='1588'> +0.0000000e+00 </wgt>
<wgt id='1589'> +0.0000000e+00 </wgt>
<wgt id='1590'> +0.0000000e+00 </wgt>
<wgt id='1591'> +0.0000000e+00 </wgt>
<wgt id='1592'> +0.0000000e+00 </wgt>
<wgt id='1593'> +0.0000000e+00 </wgt>
<wgt id='1594'> +0.0000000e+00 </wgt>
<wgt id='1595'> +0.0000000e+00 </wgt>
<wgt id='1596'> +0.0000000e+00 </wgt>
<wgt id='1597'> +0.0000000e+00 </wgt>
<wgt id='1598'> +0.0000000e+00 </wgt>
<wgt id='1599'> +0.0000000e+00 </wgt>
<wgt id='1600'> +0.0000000e+00 </wgt>
<wgt id='1601'> +0.0000000e+00 </wgt>
<wgt id='1602'> +0.0000000e+00 </wgt>
<wgt id='1603'> +0.0000000e+00 </wgt>
<wgt id='1604'> +0.0000000e+00 </wgt>
<wgt id='1605'> +0.0000000e+00 </wgt>
<wgt id='1606'> +0.0000000e+00 </wgt>
<wgt id='1607'> +0.0000000e+00 </wgt>
<wgt id='1608'> +0.0000000e+00 </wgt>
<wgt id='1609'> +0.0000000e+00 </wgt>
<wgt id='1610'> +0.0000000e+00 </wgt>
<wgt id='1611'> +0.0000000e+00 </wgt>
<wgt id='1612'> +1.5754309e-04 </wgt>
<wgt id='1613'> +1.5744298e-04 </wgt>
<wgt id='1614'> +1.5777501e-04 </wgt>
<wgt id='1615'> +1.5777340e-04 </wgt>
<wgt id='1616'> +1.5743398e-04 </wgt>
<wgt id='1617'> +1.5743505e-04 </wgt>
<wgt id='1618'> +1.5771042e-04 </wgt>
<wgt id='1619'> +1.5717677e-04 </wgt>
<wgt id='1620'> +1.5734836e-04 </wgt>
<wgt id='1621'> +1.5742265e-04 </wgt>
<wgt id='1622'> +1.5794820e-04 </wgt>
<wgt id='1623'> +1.5731932e-04 </wgt>
<wgt id='1624'> +1.5711286e-04 </wgt>
<wgt id='1625'> +1.5743717e-04 </wgt>
<wgt id='1626'> +1.5805383e-04 </wgt>
<wgt id='1627'> +1.5733239e-04 </wgt>
<wgt id='1628'> +1.5763225e-04 </wgt>
<wgt id='1629'> +1.5775699e-04 </wgt>
<wgt id='1630'> +1.5759732e-04 </wgt>
<wgt id='1631'> +1.5764773e-04 </wgt>
<wgt id='1632'> +1.5764106e-04 </wgt>
<wgt id='1633'> +1.5741873e-04 </wgt>
<wgt id='1634'> +1.5791499e-04 </wgt>
<wgt id='1635'> +1.5724881e-04 </wgt>
<wgt id='1636'> +1.5745972e-04 </wgt>
<wgt id='1637'> +1.5805028e-04 </wgt>
<wgt id='1638'> +1.5769818e-04 </wgt>
<wgt id='1639'> +1.5787229e-04 </wgt>
<wgt id='1640'> +1.5752756e-04 </wgt>
<wgt id='1641'> +1.5639933e-04 </wgt>
<wgt id='1642'> +1.5715886e-04 </wgt>
<wgt id='1643'> +1.5761382e-04 </wgt>
<wgt id='1644'> +1.5714838e-04 </wgt>
<wgt id='1645'> +1.5733429e-04 </wgt>
<wgt id='1646'> +1.5797432e-04 </wgt>
<wgt id='1647'> +1.5732046e-04 </wgt>
<wgt id='1648'> +1.5734647e-04 </wgt>
<wgt id='1649'> +1.5775808e-04 </wgt>
<wgt id='1650'> +1.5747158e-04 </wgt>
<wgt id='1651'> +1.5745635e-04 </wgt>
<wgt id='1652'> +1.5746417e-04 </wgt>
<wgt id='1653'> +1.5731637e-04 </wgt>
<wgt id='1654'> +1.5743704e-04 </wgt>
<wgt id='1655'> +1.5792307e-04 </wgt>
<wgt id='1656'> +1.5751738e-04 </wgt>
<wgt id='1657'> +1.5750860e-04 </wgt>
<wgt id='1658'> +1.5769499e-04 </wgt>
<wgt id='1659'> +1.5776930e-04 </wgt>
<wgt id='1660'> +1.5784782e-04 </wgt>
<wgt id='1661'> +1.5771494e-04 </wgt>
<wgt id='1662'> +1.5795578e-04 </wgt>
<wgt id='1663'> +1.5811761e-04 </wgt>
<wgt id='1664'> +1.5770890e-04 </wgt>
<wgt id='1665'> +1.5775329e-04 </wgt>
<wgt id='1666'> +1.5782351e-04 </wgt>
<wgt id='1667'> +1.5769608e-04 </wgt>
<wgt id='1668'> +1.5724989e-04 </wgt>
<wgt id='1669'> +1.5742748e-04 </wgt>
<wgt id='1670'> +1.5754726e-04 </wgt>
<wgt id='1671'> +1.5765551e-04 </wgt>
<wgt id='1672'> +1.5731633e-04 </wgt>
<wgt id='1673'> +1.5757954e-04 </wgt>
<wgt id='1674'> +1.5754768e-04 </wgt>
<wgt id='1675'> +1.5760532e-04 </wgt>
<wgt id='1676'> +1.5719873e-04 </wgt>
<wgt id='1677'> +1.5768312e-04 </wgt>
<wgt id='1678'> +1.5764997e-04 </wgt>
<wgt id='1679'> +1.5785998e-04 </wgt>
<wgt id='1680'> +1.5774106e-04 </wgt>
<wgt id='1681'> +1.5766464e-04 </wgt>
<wgt id='1682'> +1.5747083e-04 </wgt>
<wgt id='1683'> +1.5734740e-04 </wgt>
<wgt id='1684'> +1.5739526e-04 </wgt>
<wgt id='1685'> +1.5712348e-04 </wgt>
<wgt id='1686'> +1.5762606e-04 </wgt>
<wgt id='1687'> +1.5775513e-04 </wgt>
<wgt id='1688'> +1.5763547e-04 </wgt>
<wgt id='1689'> +1.5766983e-04 </wgt>
<wgt id='1690'> +1.5732966e-04 </wgt>
<wgt id='1691'> +1.5778410e-04 </wgt>
<wgt id='1692'> +1.5748106e-04 </wgt>
<wgt id='1693'> +1.5769417e-04 </wgt>
<wgt id='1694'> +1.5774776e-04 </wgt>
<wgt id='1695'> +1.5742752e-04 </wgt>
<wgt id='1696'> +1.5760682e-04 </wgt>
<wgt id='1697'> +1.5751040e-04 </wgt>
<wgt id='1698'> +1.5765534e-04 </wgt>
<wgt id='1699'> +1.5748186e-04 </wgt>
<wgt id='1700'> +1.5783467e-04 </wgt>
<wgt id='1701'> +1.5742656e-04 </wgt>
<wgt id='1702'> +1.5763679e-04 </wgt>
<wgt id='1703'> +1.5758851e-04 </wgt>
<wgt id='1704'> +1.5760216e-04 </wgt>
<wgt id='1705'> +1.5767547e-04 </wgt>
<wgt id='1706'> +1.5751993e-04 </wgt>
<wgt id='1707'> +1.5768696e-04 </wgt>
<wgt id='1708'> +1.5741113e-04 </wgt>
<wgt id='1709'> +1.5751375e-04 </wgt>
<wgt id='1710'> +1.5754915e-04 </wgt>
<wgt id='1711'> +1.5760256e-04 </wgt>
<wgt id='1712'> +1.5744129e-04 </wgt>
<wgt id='1713'> +1.5423486e-04 </wgt>
<wgt id='1714'> +1.6069333e-04 </wgt>
<wgt id='1715'> +0.0000000e+00 </wgt>
<wgt id='1716'> +0.0000000e+00 </wgt>
<wgt id='1717'> +0.0000000e+00 </wgt>
<wgt id='1718'> +0.0000000e+00 </wgt>
<wgt id='1719'> +0.0000000e+00 </wgt>
<wgt id='1720'> +0.0000000e+00 </wgt>
<wgt id='1721'> +0.0000000e+00 </wgt>
<wgt id='1722'> +0.0000000e+00 </wgt>
<wgt id='1723'> +0.0000000e+00 </wgt>
<wgt id='1724'> +0.0000000e+00 </wgt>
<wgt id='1725'> +0.0000000e+00 </wgt>
<wgt id='1726'> +0.0000000e+00 </wgt>
<wgt id='1727'> +0.0000000e+00 </wgt>
<wgt id='1728'> +0.0000000e+00 </wgt>
<wgt id='1729'> +0.0000000e+00 </wgt>
<wgt id='1730'> +0.0000000e+00 </wgt>
<wgt id='1731'> +0.0000000e+00 </wgt>
<wgt id='1732'> +0.0000000e+00 </wgt>
<wgt id='1733'> +0.0000000e+00 </wgt>
<wgt id='1734'> +0.0000000e+00 </wgt>
<wgt id='1735'> +0.0000000e+00 </wgt>
<wgt id='1736'> +0.0000000e+00 </wgt>
<wgt id='1737'> +0.0000000e+00 </wgt>
<wgt id='1738'> +0.0000000e+00 </wgt>
<wgt id='1739'> +0.0000000e+00 </wgt>
<wgt id='1740'> +0.0000000e+00 </wgt>
<wgt id='1741'> +0.0000000e+00 </wgt>
<wgt id='1742'> +0.0000000e+00 </wgt>
<wgt id='1743'> +0.0000000e+00 </wgt>
<wgt id='1744'> +0.0000000e+00 </wgt>
<wgt id='1745'> +0.0000000e+00 </wgt>
<wgt id='1746'> +0.0000000e+00 </wgt>
<wgt id='1747'> +0.0000000e+00 </wgt>
<wgt id='1748'> +0.0000000e+00 </wgt>
<wgt id='1749'> +0.0000000e+00 </wgt>
<wgt id='1750'> +0.0000000e+00 </wgt>
<wgt id='1751'> +0.0000000e+00 </wgt>
<wgt id='1752'> +0.0000000e+00 </wgt>
<wgt id='1753'> +0.0000000e+00 </wgt>
<wgt id='1754'> +0.0000000e+00 </wgt>
<wgt id='1755'> +0.0000000e+00 </wgt>
<wgt id='1756'> +0.0000000e+00 </wgt>
<wgt id='1757'> +0.0000000e+00 </wgt>
<wgt id='1758'> +0.0000000e+00 </wgt>
<wgt id='1759'> +0.0000000e+00 </wgt>
<wgt id='1760'> +0.0000000e+00 </wgt>
<wgt id='1761'> +0.0000000e+00 </wgt>
<wgt id='1762'> +0.0000000e+00 </wgt>
<wgt id='1763'> +0.0000000e+00 </wgt>
<wgt id='1764'> +0.0000000e+00 </wgt>
<wgt id='1765'> +0.0000000e+00 </wgt>
<wgt id='1766'> +0.0000000e+00 </wgt>
<wgt id='1767'> +0.0000000e+00 </wgt>
<wgt id='1768'> +0.0000000e+00 </wgt>
<wgt id='1769'> +0.0000000e+00 </wgt>
<wgt id='1770'> +0.0000000e+00 </wgt>
<wgt id='1771'> +0.0000000e+00 </wgt>
<wgt id='1772'> +0.0000000e+00 </wgt>
<wgt id='1773'> +0.0000000e+00 </wgt>
<wgt id='1774'> +0.0000000e+00 </wgt>
<wgt id='1775'> +0.0000000e+00 </wgt>
<wgt id='1776'> +0.0000000e+00 </wgt>
<wgt id='1777'> +0.0000000e+00 </wgt>
<wgt id='1778'> +0.0000000e+00 </wgt>
<wgt id='1779'> +0.0000000e+00 </wgt>
<wgt id='1780'> +0.0000000e+00 </wgt>
<wgt id='1781'> +0.0000000e+00 </wgt>
<wgt id='1782'> +0.0000000e+00 </wgt>
<wgt id='1783'> +0.0000000e+00 </wgt>
<wgt id='1784'> +0.0000000e+00 </wgt>
<wgt id='1785'> +0.0000000e+00 </wgt>
<wgt id='1786'> +0.0000000e+00 </wgt>
<wgt id='1787'> +0.0000000e+00 </wgt>
<wgt id='1788'> +0.0000000e+00 </wgt>
<wgt id='1789'> +0.0000000e+00 </wgt>
<wgt id='1790'> +0.0000000e+00 </wgt>
<wgt id='1791'> +0.0000000e+00 </wgt>
<wgt id='1792'> +0.0000000e+00 </wgt>
<wgt id='1793'> +0.0000000e+00 </wgt>
<wgt id='1794'> +0.0000000e+00 </wgt>
<wgt id='1795'> +0.0000000e+00 </wgt>
<wgt id='1796'> +0.0000000e+00 </wgt>
<wgt id='1797'> +0.0000000e+00 </wgt>
<wgt id='1798'> +0.0000000e+00 </wgt>
<wgt id='1799'> +0.0000000e+00 </wgt>
<wgt id='1800'> +0.0000000e+00 </wgt>
<wgt id='1801'> +0.0000000e+00 </wgt>
<wgt id='1802'> +0.0000000e+00 </wgt>
<wgt id='1803'> +0.0000000e+00 </wgt>
<wgt id='1804'> +0.0000000e+00 </wgt>
<wgt id='1805'> +0.0000000e+00 </wgt>
<wgt id='1806'> +0.0000000e+00 </wgt>
<wgt id='1807'> +0.0000000e+00 </wgt>
<wgt id='1808'> +0.0000000e+00 </wgt>
<wgt id='1809'> +0.0000000e+00 </wgt>
<wgt id='1810'> +0.0000000e+00 </wgt>
<wgt id='1811'> +0.0000000e+00 </wgt>
<wgt id='1812'> +0.0000000e+00 </wgt>
<wgt id='1813'> +0.0000000e+00 </wgt>
<wgt id='1814'> +0.0000000e+00 </wgt>
<wgt id='1815'> +0.0000000e+00 </wgt>
<wgt id='1816'> +0.0000000e+00 </wgt>
<wgt id='1817'> +0.0000000e+00 </wgt>
<wgt id='1818'> +0.0000000e+00 </wgt>
<wgt id='1819'> +0.0000000e+00 </wgt>
<wgt id='1820'> +0.0000000e+00 </wgt>
<wgt id='1821'> +0.0000000e+00 </wgt>
<wgt id='1822'> +0.0000000e+00 </wgt>
<wgt id='1823'> +0.0000000e+00 </wgt>
<wgt id='1824'> +0.0000000e+00 </wgt>
<wgt id='1825'> +0.0000000e+00 </wgt>
<wgt id='1826'> +0.0000000e+00 </wgt>
<wgt id='1827'> +0.0000000e+00 </wgt>
<wgt id='1828'> +0.0000000e+00 </wgt>
<wgt id='1829'> +0.0000000e+00 </wgt>
<wgt id='1830'> +0.0000000e+00 </wgt>
<wgt id='1831'> +0.0000000e+00 </wgt>
<wgt id='1832'> +0.0000000e+00 </wgt>
<wgt id='1833'> +0.0000000e+00 </wgt>
<wgt id='1834'> +0.0000000e+00 </wgt>
<wgt id='1835'> +0.0000000e+00 </wgt>
<wgt id='1836'> +0.0000000e+00 </wgt>
<wgt id='1837'> +0.0000000e+00 </wgt>
<wgt id='1838'> +0.0000000e+00 </wgt>
<wgt id='1839'> +0.0000000e+00 </wgt>
<wgt id='1840'> +0.0000000e+00 </wgt>
<wgt id='1841'> +0.0000000e+00 </wgt>
<wgt id='1842'> +0.0000000e+00 </wgt>
<wgt id='1843'> +0.0000000e+00 </wgt>
<wgt id='1844'> +0.0000000e+00 </wgt>
<wgt id='1845'> +0.0000000e+00 </wgt>
<wgt id='1846'> +0.0000000e+00 </wgt>
<wgt id='1847'> +0.0000000e+00 </wgt>
<wgt id='1848'> +0.0000000e+00 </wgt>
<wgt id='1849'> +0.0000000e+00 </wgt>
<wgt id='1850'> +0.0000000e+00 </wgt>
<wgt id='1851'> +0.0000000e+00 </wgt>
<wgt id='1852'> +0.0000000e+00 </wgt>
<wgt id='1853'> +0.0000000e+00 </wgt>
<wgt id='1854'> +0.0000000e+00 </wgt>
<wgt id='1855'> +0.0000000e+00 </wgt>
<wgt id='1856'> +0.0000000e+00 </wgt>
<wgt id='1857'> +0.0000000e+00 </wgt>
<wgt id='1858'> +0.0000000e+00 </wgt>
<wgt id='1859'> +0.0000000e+00 </wgt>
<wgt id='1860'> +0.0000000e+00 </wgt>
<wgt id='1861'> +0.0000000e+00 </wgt>
<wgt id='1862'> +0.0000000e+00 </wgt>
<wgt id='1863'> +0.0000000e+00 </wgt>
<wgt id='1864'> +0.0000000e+00 </wgt>
<wgt id='1865'> +0.0000000e+00 </wgt>
<wgt id='1866'> +0.0000000e+00 </wgt>
<wgt id='1867'> +0.0000000e+00 </wgt>
<wgt id='1868'> +0.0000000e+00 </wgt>
<wgt id='1869'> +0.0000000e+00 </wgt>
<wgt id='1870'> +0.0000000e+00 </wgt>
<wgt id='1871'> +0.0000000e+00 </wgt>
<wgt id='1872'> +0.0000000e+00 </wgt>
<wgt id='1873'> +0.0000000e+00 </wgt>
<wgt id='1874'> +0.0000000e+00 </wgt>
<wgt id='1875'> +0.0000000e+00 </wgt>
<wgt id='1876'> +0.0000000e+00 </wgt>
<wgt id='1877'> +0.0000000e+00 </wgt>
<wgt id='1878'> +0.0000000e+00 </wgt>
<wgt id='1879'> +0.0000000e+00 </wgt>
<wgt id='1880'> +0.0000000e+00 </wgt>
<wgt id='1881'> +0.0000000e+00 </wgt>
<wgt id='1882'> +0.0000000e+00 </wgt>
<wgt id='1883'> +0.0000000e+00 </wgt>
<wgt id='1884'> +0.0000000e+00 </wgt>
<wgt id='1885'> +0.0000000e+00 </wgt>
<wgt id='1886'> +0.0000000e+00 </wgt>
<wgt id='1887'> +0.0000000e+00 </wgt>
<wgt id='1888'> +0.0000000e+00 </wgt>
<wgt id='1889'> +0.0000000e+00 </wgt>
<wgt id='1890'> +0.0000000e+00 </wgt>
<wgt id='1891'> +0.0000000e+00 </wgt>
<wgt id='1892'> +0.0000000e+00 </wgt>
<wgt id='1893'> +0.0000000e+00 </wgt>
<wgt id='1894'> +0.0000000e+00 </wgt>
<wgt id='1895'> +0.0000000e+00 </wgt>
<wgt id='1896'> +0.0000000e+00 </wgt>
<wgt id='1897'> +0.0000000e+00 </wgt>
<wgt id='1898'> +0.0000000e+00 </wgt>
<wgt id='1899'> +0.0000000e+00 </wgt>
<wgt id='1900'> +0.0000000e+00 </wgt>
<wgt id='1901'> +0.0000000e+00 </wgt>
<wgt id='1902'> +0.0000000e+00 </wgt>
<wgt id='1903'> +0.0000000e+00 </wgt>
<wgt id='1904'> +0.0000000e+00 </wgt>
<wgt id='1905'> +0.0000000e+00 </wgt>
<wgt id='1906'> +0.0000000e+00 </wgt>
<wgt id='1907'> +0.0000000e+00 </wgt>
<wgt id='1908'> +0.0000000e+00 </wgt>
<wgt id='1909'> +0.0000000e+00 </wgt>
<wgt id='1910'> +0.0000000e+00 </wgt>
<wgt id='1911'> +0.0000000e+00 </wgt>
<wgt id='1912'> +0.0000000e+00 </wgt>
<wgt id='1913'> +0.0000000e+00 </wgt>
<wgt id='1914'> +0.0000000e+00 </wgt>
<wgt id='1915'> +0.0000000e+00 </wgt>
<wgt id='1916'> +0.0000000e+00 </wgt>
<wgt id='1917'> +0.0000000e+00 </wgt>
<wgt id='1918'> +0.0000000e+00 </wgt>
<wgt id='1919'> +0.0000000e+00 </wgt>
<wgt id='1920'> +0.0000000e+00 </wgt>
<wgt id='1921'> +0.0000000e+00 </wgt>
<wgt id='1922'> +0.0000000e+00 </wgt>
<wgt id='1923'> +0.0000000e+00 </wgt>
<wgt id='1924'> +0.0000000e+00 </wgt>
<wgt id='1925'> +0.0000000e+00 </wgt>
<wgt id='1926'> +0.0000000e+00 </wgt>
<wgt id='1927'> +0.0000000e+00 </wgt>
<wgt id='1928'> +0.0000000e+00 </wgt>
<wgt id='1929'> +0.0000000e+00 </wgt>
<wgt id='1930'> +0.0000000e+00 </wgt>
<wgt id='1931'> +0.0000000e+00 </wgt>
<wgt id='1932'> +0.0000000e+00 </wgt>
<wgt id='1933'> +0.0000000e+00 </wgt>
<wgt id='1934'> +0.0000000e+00 </wgt>
<wgt id='1935'> +0.0000000e+00 </wgt>
<wgt id='1936'> +0.0000000e+00 </wgt>
<wgt id='1937'> +0.0000000e+00 </wgt>
<wgt id='1938'> +0.0000000e+00 </wgt>
<wgt id='1939'> +0.0000000e+00 </wgt>
<wgt id='1940'> +0.0000000e+00 </wgt>
<wgt id='1941'> +0.0000000e+00 </wgt>
<wgt id='1942'> +0.0000000e+00 </wgt>
<wgt id='1943'> +0.0000000e+00 </wgt>
<wgt id='1944'> +0.0000000e+00 </wgt>
<wgt id='1945'> +0.0000000e+00 </wgt>
<wgt id='1946'> +0.0000000e+00 </wgt>
<wgt id='1947'> +0.0000000e+00 </wgt>
<wgt id='1948'> +0.0000000e+00 </wgt>
<wgt id='1949'> +0.0000000e+00 </wgt>
<wgt id='1950'> +0.0000000e+00 </wgt>
<wgt id='1951'> +0.0000000e+00 </wgt>
<wgt id='1952'> +0.0000000e+00 </wgt>
<wgt id='1953'> +0.0000000e+00 </wgt>
<wgt id='1954'> +0.0000000e+00 </wgt>
<wgt id='1955'> +0.0000000e+00 </wgt>
<wgt id='1956'> +0.0000000e+00 </wgt>
<wgt id='1957'> +0.0000000e+00 </wgt>
<wgt id='1958'> +0.0000000e+00 </wgt>
<wgt id='1959'> +0.0000000e+00 </wgt>
<wgt id='1960'> +0.0000000e+00 </wgt>
<wgt id='1961'> +0.0000000e+00 </wgt>
<wgt id='1962'> +0.0000000e+00 </wgt>
<wgt id='1963'> +0.0000000e+00 </wgt>
<wgt id='1964'> +0.0000000e+00 </wgt>
<wgt id='1965'> +0.0000000e+00 </wgt>
<wgt id='1966'> +0.0000000e+00 </wgt>
<wgt id='1967'> +0.0000000e+00 </wgt>
<wgt id='1968'> +0.0000000e+00 </wgt>
<wgt id='1969'> +0.0000000e+00 </wgt>
<wgt id='1970'> +0.0000000e+00 </wgt>
<wgt id='1971'> +0.0000000e+00 </wgt>
<wgt id='1972'> +0.0000000e+00 </wgt>
<wgt id='1973'> +0.0000000e+00 </wgt>
<wgt id='1974'> +0.0000000e+00 </wgt>
<wgt id='1975'> +0.0000000e+00 </wgt>
<wgt id='1976'> +0.0000000e+00 </wgt>
<wgt id='1977'> +0.0000000e+00 </wgt>
<wgt id='1978'> +0.0000000e+00 </wgt>
<wgt id='1979'> +0.0000000e+00 </wgt>
<wgt id='1980'> +0.0000000e+00 </wgt>
<wgt id='1981'> +0.0000000e+00 </wgt>
<wgt id='1982'> +0.0000000e+00 </wgt>
<wgt id='1983'> +0.0000000e+00 </wgt>
<wgt id='1984'> +0.0000000e+00 </wgt>
<wgt id='1985'> +0.0000000e+00 </wgt>
<wgt id='1986'> +0.0000000e+00 </wgt>
<wgt id='1987'> +0.0000000e+00 </wgt>
<wgt id='1988'> +0.0000000e+00 </wgt>
<wgt id='1989'> +0.0000000e+00 </wgt>
<wgt id='1990'> +0.0000000e+00 </wgt>
<wgt id='1991'> +0.0000000e+00 </wgt>
<wgt id='1992'> +0.0000000e+00 </wgt>
<wgt id='1993'> +0.0000000e+00 </wgt>
<wgt id='1994'> +0.0000000e+00 </wgt>
<wgt id='1995'> +0.0000000e+00 </wgt>
<wgt id='1996'> +0.0000000e+00 </wgt>
<wgt id='1997'> +0.0000000e+00 </wgt>
<wgt id='1998'> +0.0000000e+00 </wgt>
<wgt id='1999'> +0.0000000e+00 </wgt>
<wgt id='2000'> +0.0000000e+00 </wgt>
<wgt id='2001'> +0.0000000e+00 </wgt>
<wgt id='2002'> +0.0000000e+00 </wgt>
<wgt id='2003'> +0.0000000e+00 </wgt>
<wgt id='2004'> +0.0000000e+00 </wgt>
<wgt id='2005'> +0.0000000e+00 </wgt>
<wgt id='2006'> +0.0000000e+00 </wgt>
<wgt id='2007'> +0.0000000e+00 </wgt>
<wgt id='2008'> +0.0000000e+00 </wgt>
<wgt id='2009'> +0.0000000e+00 </wgt>
<wgt id='2010'> +0.0000000e+00 </wgt>
<wgt id='2011'> +0.0000000e+00 </wgt>
<wgt id='2012'> +0.0000000e+00 </wgt>
<wgt id='2013'> +0.0000000e+00 </wgt>
<wgt id='2014'> +0.0000000e+00 </wgt>
<wgt id='2015'> +0.0000000e+00 </wgt>
<wgt id='2016'> +0.0000000e+00 </wgt>
<wgt id='2017'> +0.0000000e+00 </wgt>
<wgt id='2018'> +0.0000000e+00 </wgt>
<wgt id='2019'> +0.0000000e+00 </wgt>
<wgt id='2020'> +0.0000000e+00 </wgt>
<wgt id='2021'> +0.0000000e+00 </wgt>
<wgt id='2022'> +0.0000000e+00 </wgt>
</rwgt>
</event>
<event>
14      2 +1.5732536e-04 5.72653100e+02 7.81860800e-03 1.07540400e-01
        2 -1    0    0  502    0 +0.0000000000e+00 +0.0000000000e+00 +2.8387052749e+03 2.8387052749e+03 2.5500000000e-03 0.0000e+00 -1.0000e+00
       -5 -1    0    0    0  501 +0.0000000000e+00 +0.0000000000e+00 -2.8683208890e+02 2.8687059316e+02 4.7000000000e+00 0.0000e+00 1.0000e+00
        2  1    1    2  502    0 +8.6002315682e+00 -5.1957890489e+01 +6.2307461079e+02 6.2529637532e+02 2.5500000000e-03 0.0000e+00 -1.0000e+00
       24  2    1    2    0    0 +4.8574424548e+01 +1.4338430187e+02 +7.8795346748e+02 8.0649133751e+02 8.1480536436e+01 0.0000e+00 0.0000e+00
       16  1    4    4    0    0 +5.8311718497e+01 +4.7805630806e+01 +3.1838526447e+02 3.2719231575e+02 0.0000000000e+00 0.0000e+00 -1.0000e+00
      -15  1    4    4    0    0 -9.7372939487e+00 +9.5578671063e+01 +4.6956820301e+02 4.7929902176e+02 1.7770000000e+00 0.0000e+00 1.0000e+00
       23  2    1    2    0    0 +2.3171856942e+02 +4.0922335904e+02 +9.4751633902e+02 1.0613939929e+03 8.7251031307e+01 0.0000e+00 0.0000e+00
        2  1    7    7  503    0 +4.8973264627e+01 +1.5806001868e+02 +3.7927911327e+02 4.1380429665e+02 2.5500000000e-03 0.0000e+00 -1.0000e+00
       -2  1    7    7    0  503 +1.8274530479e+02 +2.5116334036e+02 +5.6823722575e+02 6.4758969626e+02 2.5500000000e-03 0.0000e+00 1.0000e+00
       -6  2    1    2    0  501 -2.8889322553e+02 -5.0064977042e+02 +1.9332876871e+02 6.3239416233e+02 1.6863236747e+02 0.0000e+00 0.0000e+00
       -5  1   10   10    0  501 -2.1713364825e+02 -2.7828641849e+02 +1.4113924338e+02 3.8017460191e+02 4.7000000000e+00 0.0000e+00 1.0000e+00
      -24  2   10   10    0    0 -7.1759577285e+01 -2.2236335194e+02 +5.2189525334e+01 2.5221956043e+02 7.9347733998e+01 0.0000e+00 0.0000e+00
      -16  1   12   12    0    0 -5.6541651672e+00 -2.5512003328e+00 +1.9372674542e+01 2.0341551705e+01 0.0000000000e+00 0.0000e+00 1.0000e+00
       15  1   12   12    0    0 -6.6105412118e+01 -2.1981215160e+02 +3.2816850792e+01 2.3187800872e+02 1.7770000000e+00 0.0000e+00 -1.0000e+00
<mgrwt>
<rscale>  0 0.17384955e+03</rscale>
<asrwt>0</asrwt>
<pdfrwt beam="1">  1        2 0.40552932e+00 0.52778313e+02</pdfrwt>
<pdfrwt beam="2">  1       -5 0.40979041e-01 0.57265314e+03</pdfrwt>
<totfact> 0.10255376e+01</totfact>
</mgrwt>
<rwgt>
<wgt id='1001'> +1.5732536e-04 </wgt>
<wgt id='1002'> +1.1028015e-04 </wgt>
<wgt id='1003'> +1.1028006e-04 </wgt>
<wgt id='1004'> +1.1423078e-04 </wgt>
<wgt id='1005'> +1.0822885e-04 </wgt>
<wgt id='1006'> +1.5732536e-04 </wgt>
<wgt id='1007'> +1.1028015e-04 </wgt>
<wgt id='1008'> +1.1028006e-04 </wgt>
<wgt id='1009'> +1.1423078e-04 </wgt>
<wgt id='1010'> +1.0822885e-04 </wgt>
<wgt id='1011'> +1.5732536e-04 </wgt>
<wgt id='1012'> +1.1028015e-04 </wgt>
<wgt id='1013'> +1.1028006e-04 </wgt>
<wgt id='1014'> +1.1423078e-04 </wgt>
<wgt id='1015'> +1.0822885e-04 </wgt>
<wgt id='1016'> +1.4814361e-04 </wgt>
<wgt id='1017'> +1.0600319e-04 </wgt>
<wgt id='1018'> +1.0600309e-04 </wgt>
<wgt id='1019'> +1.1028006e-04 </wgt>
<wgt id='1020'> +1.0388240e-04 </wgt>
<wgt id='1021'> +1.4814361e-04 </wgt>
<wgt id='1022'> +1.0600319e-04 </wgt>
<wgt id='1023'> +1.0600309e-04 </wgt>
<wgt id='1024'> +1.1028006e-04 </wgt>
<wgt id='1025'> +1.0388240e-04 </wgt>
<wgt id='1026'> +1.4814361e-04 </wgt>
<wgt id='1027'> +1.0600319e-04 </wgt>
<wgt id='1028'> +1.0600309e-04 </wgt>
<wgt id='1029'> +1.1028006e-04 </wgt>
<wgt id='1030'> +1.0388240e-04 </wgt>
<wgt id='1031'> +1.6670744e-04 </wgt>
<wgt id='1032'> +1.1423087e-04 </wgt>
<wgt id='1033'> +1.1423078e-04 </wgt>
<wgt id='1034'> +1.1748187e-04 </wgt>
<wgt id='1035'> +1.1237010e-04 </wgt>
<wgt id='1036'> +1.6670744e-04 </wgt>
<wgt id='1037'> +1.1423087e-04 </wgt>
<wgt id='1038'> +1.1423078e-04 </wgt>
<wgt id='1039'> +1.1748187e-04 </wgt>
<wgt id='1040'> +1.1237010e-04 </wgt>
<wgt id='1041'> +1.6670744e-04 </wgt>
<wgt id='1042'> +1.1423087e-04 </wgt>
<wgt id='1043'> +1.1423078e-04 </wgt>
<wgt id='1044'> +1.1748187e-04 </wgt>
<wgt id='1045'> +1.1237010e-04 </wgt>
<wgt id='1046'> +1.5732536e-04 </wgt>
<wgt id='1047'> +1.5732536e-04 </wgt>
<wgt id='1048'> +0.0000000e+00 </wgt>
<wgt id='1049'> +0.0000000e+00 </wgt>
<wgt id='1050'> +0.0000000e+00 </wgt>
<wgt id='1051'> +0.0000000e+00 </wgt>
<wgt id='1052'> +0.0000000e+00 </wgt>
<wgt id='1053'> +0.0000000e+00 </wgt>
<wgt id='1054'> +0.0000000e+00 </wgt>
<wgt id='1055'> +0.0000000e+00 </wgt>
<wgt id='1056'> +0.0000000e+00 </wgt>
<wgt id='1057'> +0.0000000e+00 </wgt>
<wgt id='1058'> +0.0000000e+00 </wgt>
<wgt id='1059'> +0.0000000e+00 </wgt>
<wgt id='1060'> +0.0000000e+00 </wgt>
<wgt id='1061'> +0.0000000e+00 </wgt>
<wgt id='1062'> +0.0000000e+00 </wgt>
<wgt id='1063'> +0.0000000e+00 </wgt>
<wgt id='1064'> +0.0000000e+00 </wgt>
<wgt id='1065'> +0.0000000e+00 </wgt>
<wgt id='1066'> +0.0000000e+00 </wgt>
<wgt id='1067'> +0.0000000e+00 </wgt>
<wgt id='1068'> +0.0000000e+00 </wgt>
<wgt id='1069'> +0.0000000e+00 </wgt>
<wgt id='1070'> +0.0000000e+00 </wgt>
<wgt id='1071'> +0.0000000e+00 </wgt>
<wgt id='1072'> +0.0000000e+00 </wgt>
<wgt id='1073'> +0.0000000e+00 </wgt>
<wgt id='1074'> +0.0000000e+00 </wgt>
<wgt id='1075'> +0.0000000e+00 </wgt>
<wgt id='1076'> +0.0000000e+00 </wgt>
<wgt id='1077'> +0.0000000e+00 </wgt>
<wgt id='1078'> +0.0000000e+00 </wgt>
<wgt id='1079'> +0.0000000e+00 </wgt>
<wgt id='1080'> +0.0000000e+00 </wgt>
<wgt id='1081'> +0.0000000e+00 </wgt>
<wgt id='1082'> +0.0000000e+00 </wgt>
<wgt id='1083'> +0.0000000e+00 </wgt>
<wgt id='1084'> +0.0000000e+00 </wgt>
<wgt id='1085'> +0.0000000e+00 </wgt>
<wgt id='1086'> +0.0000000e+00 </wgt>
<wgt id='1087'> +0.0000000e+00 </wgt>
<wgt id='1088'> +0.0000000e+00 </wgt>
<wgt id='1089'> +0.0000000e+00 </wgt>
<wgt id='1090'> +0.0000000e+00 </wgt>
<wgt id='1091'> +0.0000000e+00 </wgt>
<wgt id='1092'> +0.0000000e+00 </wgt>
<wgt id='1093'> +0.0000000e+00 </wgt>
<wgt id='1094'> +0.0000000e+00 </wgt>
<wgt id='1095'> +0.0000000e+00 </wgt>
<wgt id='1096'> +0.0000000e+00 </wgt>
<wgt id='1097'> +0.0000000e+00 </wgt>
<wgt id='1098'> +0.0000000e+00 </wgt>
<wgt id='1099'> +0.0000000e+00 </wgt>
<wgt id='1100'> +0.0000000e+00 </wgt>
<wgt id='1101'> +0.0000000e+00 </wgt>
<wgt id='1102'> +0.0000000e+00 </wgt>
<wgt id='1103'> +0.0000000e+00 </wgt>
<wgt id='1104'> +0.0000000e+00 </wgt>
<wgt id='1105'> +0.0000000e+00 </wgt>
<wgt id='1106'> +0.0000000e+00 </wgt>
<wgt id='1107'> +0.0000000e+00 </wgt>
<wgt id='1108'> +0.0000000e+00 </wgt>
<wgt id='1109'> +0.0000000e+00 </wgt>
<wgt id='1110'> +0.0000000e+00 </wgt>
<wgt id='1111'> +0.0000000e+00 </wgt>
<wgt id='1112'> +0.0000000e+00 </wgt>
<wgt id='1113'> +0.0000000e+00 </wgt>
<wgt id='1114'> +0.0000000e+00 </wgt>
<wgt id='1115'> +0.0000000e+00 </wgt>
<wgt id='1116'> +0.0000000e+00 </wgt>
<wgt id='1117'> +0.0000000e+00 </wgt>
<wgt id='1118'> +0.0000000e+00 </wgt>
<wgt id='1119'> +0.0000000e+00 </wgt>
<wgt id='1120'> +0.0000000e+00 </wgt>
<wgt id='1121'> +0.0000000e+00 </wgt>
<wgt id='1122'> +0.0000000e+00 </wgt>
<wgt id='1123'> +0.0000000e+00 </wgt>
<wgt id='1124'> +0.0000000e+00 </wgt>
<wgt id='1125'> +0.0000000e+00 </wgt>
<wgt id='1126'> +0.0000000e+00 </wgt>
<wgt id='1127'> +0.0000000e+00 </wgt>
<wgt id='1128'> +0.0000000e+00 </wgt>
<wgt id='1129'> +0.0000000e+00 </wgt>
<wgt id='1130'> +0.0000000e+00 </wgt>
<wgt id='1131'> +0.0000000e+00 </wgt>
<wgt id='1132'> +0.0000000e+00 </wgt>
<wgt id='1133'> +0.0000000e+00 </wgt>
<wgt id='1134'> +0.0000000e+00 </wgt>
<wgt id='1135'> +0.0000000e+00 </wgt>
<wgt id='1136'> +0.0000000e+00 </wgt>
<wgt id='1137'> +0.0000000e+00 </wgt>
<wgt id='1138'> +0.0000000e+00 </wgt>
<wgt id='1139'> +0.0000000e+00 </wgt>
<wgt id='1140'> +0.0000000e+00 </wgt>
<wgt id='1141'> +0.0000000e+00 </wgt>
<wgt id='1142'> +0.0000000e+00 </wgt>
<wgt id='1143'> +0.0000000e+00 </wgt>
<wgt id='1144'> +0.0000000e+00 </wgt>
<wgt id='1145'> +0.0000000e+00 </wgt>
<wgt id='1146'> +0.0000000e+00 </wgt>
<wgt id='1147'> +0.0000000e+00 </wgt>
<wgt id='1148'> +0.0000000e+00 </wgt>
<wgt id='1149'> +0.0000000e+00 </wgt>
<wgt id='1150'> +0.0000000e+00 </wgt>
<wgt id='1151'> +0.0000000e+00 </wgt>
<wgt id='1152'> +0.0000000e+00 </wgt>
<wgt id='1153'> +0.0000000e+00 </wgt>
<wgt id='1154'> +0.0000000e+00 </wgt>
<wgt id='1155'> +0.0000000e+00 </wgt>
<wgt id='1156'> +0.0000000e+00 </wgt>
<wgt id='1157'> +0.0000000e+00 </wgt>
<wgt id='1158'> +0.0000000e+00 </wgt>
<wgt id='1159'> +0.0000000e+00 </wgt>
<wgt id='1160'> +0.0000000e+00 </wgt>
<wgt id='1161'> +0.0000000e+00 </wgt>
<wgt id='1162'> +0.0000000e+00 </wgt>
<wgt id='1163'> +0.0000000e+00 </wgt>
<wgt id='1164'> +0.0000000e+00 </wgt>
<wgt id='1165'> +0.0000000e+00 </wgt>
<wgt id='1166'> +0.0000000e+00 </wgt>
<wgt id='1167'> +0.0000000e+00 </wgt>
<wgt id='1168'> +0.0000000e+00 </wgt>
<wgt id='1169'> +0.0000000e+00 </wgt>
<wgt id='1170'> +0.0000000e+00 </wgt>
<wgt id='1171'> +0.0000000e+00 </wgt>
<wgt id='1172'> +0.0000000e+00 </wgt>
<wgt id='1173'> +0.0000000e+00 </wgt>
<wgt id='1174'> +0.0000000e+00 </wgt>
<wgt id='1175'> +0.0000000e+00 </wgt>
<wgt id='1176'> +0.0000000e+00 </wgt>
<wgt id='1177'> +0.0000000e+00 </wgt>
<wgt id='1178'> +0.0000000e+00 </wgt>
<wgt id='1179'> +0.0000000e+00 </wgt>
<wgt id='1180'> +0.0000000e+00 </wgt>
<wgt id='1181'> +0.0000000e+00 </wgt>
<wgt id='1182'> +0.0000000e+00 </wgt>
<wgt id='1183'> +0.0000000e+00 </wgt>
<wgt id='1184'> +0.0000000e+00 </wgt>
<wgt id='1185'> +0.0000000e+00 </wgt>
<wgt id='1186'> +0.0000000e+00 </wgt>
<wgt id='1187'> +0.0000000e+00 </wgt>
<wgt id='1188'> +0.0000000e+00 </wgt>
<wgt id='1189'> +0.0000000e+00 </wgt>
<wgt id='1190'> +0.0000000e+00 </wgt>
<wgt id='1191'> +0.0000000e+00 </wgt>
<wgt id='1192'> +0.0000000e+00 </wgt>
<wgt id='1193'> +0.0000000e+00 </wgt>
<wgt id='1194'> +0.0000000e+00 </wgt>
<wgt id='1195'> +0.0000000e+00 </wgt>
<wgt id='1196'> +0.0000000e+00 </wgt>
<wgt id='1197'> +0.0000000e+00 </wgt>
<wgt id='1198'> +0.0000000e+00 </wgt>
<wgt id='1199'> +0.0000000e+00 </wgt>
<wgt id='1200'> +0.0000000e+00 </wgt>
<wgt id='1201'> +0.0000000e+00 </wgt>
<wgt id='1202'> +0.0000000e+00 </wgt>
<wgt id='1203'> +0.0000000e+00 </wgt>
<wgt id='1204'> +0.0000000e+00 </wgt>
<wgt id='1205'> +0.0000000e+00 </wgt>
<wgt id='1206'> +0.0000000e+00 </wgt>
<wgt id='1207'> +0.0000000e+00 </wgt>
<wgt id='1208'> +0.0000000e+00 </wgt>
<wgt id='1209'> +0.0000000e+00 </wgt>
<wgt id='1210'> +0.0000000e+00 </wgt>
<wgt id='1211'> +0.0000000e+00 </wgt>
<wgt id='1212'> +0.0000000e+00 </wgt>
<wgt id='1213'> +0.0000000e+00 </wgt>
<wgt id='1214'> +0.0000000e+00 </wgt>
<wgt id='1215'> +0.0000000e+00 </wgt>
<wgt id='1216'> +0.0000000e+00 </wgt>
<wgt id='1217'> +0.0000000e+00 </wgt>
<wgt id='1218'> +0.0000000e+00 </wgt>
<wgt id='1219'> +0.0000000e+00 </wgt>
<wgt id='1220'> +0.0000000e+00 </wgt>
<wgt id='1221'> +0.0000000e+00 </wgt>
<wgt id='1222'> +0.0000000e+00 </wgt>
<wgt id='1223'> +0.0000000e+00 </wgt>
<wgt id='1224'> +0.0000000e+00 </wgt>
<wgt id='1225'> +0.0000000e+00 </wgt>
<wgt id='1226'> +0.0000000e+00 </wgt>
<wgt id='1227'> +0.0000000e+00 </wgt>
<wgt id='1228'> +0.0000000e+00 </wgt>
<wgt id='1229'> +0.0000000e+00 </wgt>
<wgt id='1230'> +0.0000000e+00 </wgt>
<wgt id='1231'> +0.0000000e+00 </wgt>
<wgt id='1232'> +0.0000000e+00 </wgt>
<wgt id='1233'> +0.0000000e+00 </wgt>
<wgt id='1234'> +0.0000000e+00 </wgt>
<wgt id='1235'> +0.0000000e+00 </wgt>
<wgt id='1236'> +0.0000000e+00 </wgt>
<wgt id='1237'> +0.0000000e+00 </wgt>
<wgt id='1238'> +0.0000000e+00 </wgt>
<wgt id='1239'> +0.0000000e+00 </wgt>
<wgt id='1240'> +0.0000000e+00 </wgt>
<wgt id='1241'> +0.0000000e+00 </wgt>
<wgt id='1242'> +0.0000000e+00 </wgt>
<wgt id='1243'> +0.0000000e+00 </wgt>
<wgt id='1244'> +0.0000000e+00 </wgt>
<wgt id='1245'> +0.0000000e+00 </wgt>
<wgt id='1246'> +0.0000000e+00 </wgt>
<wgt id='1247'> +0.0000000e+00 </wgt>
<wgt id='1248'> +0.0000000e+00 </wgt>
<wgt id='1249'> +0.0000000e+00 </wgt>
<wgt id='1250'> +0.0000000e+00 </wgt>
<wgt id='1251'> +0.0000000e+00 </wgt>
<wgt id='1252'> +0.0000000e+00 </wgt>
<wgt id='1253'> +0.0000000e+00 </wgt>
<wgt id='1254'> +0.0000000e+00 </wgt>
<wgt id='1255'> +0.0000000e+00 </wgt>
<wgt id='1256'> +0.0000000e+00 </wgt>
<wgt id='1257'> +0.0000000e+00 </wgt>
<wgt id='1258'> +0.0000000e+00 </wgt>
<wgt id='1259'> +0.0000000e+00 </wgt>
<wgt id='1260'> +0.0000000e+00 </wgt>
<wgt id='1261'> +0.0000000e+00 </wgt>
<wgt id='1262'> +0.0000000e+00 </wgt>
<wgt id='1263'> +0.0000000e+00 </wgt>
<wgt id='1264'> +0.0000000e+00 </wgt>
<wgt id='1265'> +0.0000000e+00 </wgt>
<wgt id='1266'> +0.0000000e+00 </wgt>
<wgt id='1267'> +0.0000000e+00 </wgt>
<wgt id='1268'> +0.0000000e+00 </wgt>
<wgt id='1269'> +0.0000000e+00 </wgt>
<wgt id='1270'> +0.0000000e+00 </wgt>
<wgt id='1271'> +0.0000000e+00 </wgt>
<wgt id='1272'> +0.0000000e+00 </wgt>
<wgt id='1273'> +0.0000000e+00 </wgt>
<wgt id='1274'> +0.0000000e+00 </wgt>
<wgt id='1275'> +0.0000000e+00 </wgt>
<wgt id='1276'> +0.0000000e+00 </wgt>
<wgt id='1277'> +0.0000000e+00 </wgt>
<wgt id='1278'> +0.0000000e+00 </wgt>
<wgt id='1279'> +0.0000000e+00 </wgt>
<wgt id='1280'> +0.0000000e+00 </wgt>
<wgt id='1281'> +0.0000000e+00 </wgt>
<wgt id='1282'> +0.0000000e+00 </wgt>
<wgt id='1283'> +0.0000000e+00 </wgt>
<wgt id='1284'> +0.0000000e+00 </wgt>
<wgt id='1285'> +0.0000000e+00 </wgt>
<wgt id='1286'> +0.0000000e+00 </wgt>
<wgt id='1287'> +0.0000000e+00 </wgt>
<wgt id='1288'> +0.0000000e+00 </wgt>
<wgt id='1289'> +0.0000000e+00 </wgt>
<wgt id='1290'> +0.0000000e+00 </wgt>
<wgt id='1291'> +0.0000000e+00 </wgt>
<wgt id='1292'> +0.0000000e+00 </wgt>
<wgt id='1293'> +0.0000000e+00 </wgt>
<wgt id='1294'> +0.0000000e+00 </wgt>
<wgt id='1295'> +0.0000000e+00 </wgt>
<wgt id='1296'> +0.0000000e+00 </wgt>
<wgt id='1297'> +0.0000000e+00 </wgt>
<wgt id='1298'> +0.0000000e+00 </wgt>
<wgt id='1299'> +0.0000000e+00 </wgt>
<wgt id='1300'> +0.0000000e+00 </wgt>
<wgt id='1301'> +0.0000000e+00 </wgt>
<wgt id='1302'> +0.0000000e+00 </wgt>
<wgt id='1303'> +0.0000000e+00 </wgt>
<wgt id='1304'> +0.0000000e+00 </wgt>
<wgt id='1305'> +0.0000000e+00 </wgt>
<wgt id='1306'> +0.0000000e+00 </wgt>
<wgt id='1307'> +0.0000000e+00 </wgt>
<wgt id='1308'> +0.0000000e+00 </wgt>
<wgt id='1309'> +0.0000000e+00 </wgt>
<wgt id='1310'> +0.0000000e+00 </wgt>
<wgt id='1311'> +0.0000000e+00 </wgt>
<wgt id='1312'> +0.0000000e+00 </wgt>
<wgt id='1313'> +0.0000000e+00 </wgt>
<wgt id='1314'> +0.0000000e+00 </wgt>
<wgt id='1315'> +0.0000000e+00 </wgt>
<wgt id='1316'> +0.0000000e+00 </wgt>
<wgt id='1317'> +0.0000000e+00 </wgt>
<wgt id='1318'> +0.0000000e+00 </wgt>
<wgt id='1319'> +0.0000000e+00 </wgt>
<wgt id='1320'> +0.0000000e+00 </wgt>
<wgt id='1321'> +0.0000000e+00 </wgt>
<wgt id='1322'> +0.0000000e+00 </wgt>
<wgt id='1323'> +0.0000000e+00 </wgt>
<wgt id='1324'> +0.0000000e+00 </wgt>
<wgt id='1325'> +0.0000000e+00 </wgt>
<wgt id='1326'> +0.0000000e+00 </wgt>
<wgt id='1327'> +0.0000000e+00 </wgt>
<wgt id='1328'> +0.0000000e+00 </wgt>
<wgt id='1329'> +0.0000000e+00 </wgt>
<wgt id='1330'> +0.0000000e+00 </wgt>
<wgt id='1331'> +0.0000000e+00 </wgt>
<wgt id='1332'> +0.0000000e+00 </wgt>
<wgt id='1333'> +0.0000000e+00 </wgt>
<wgt id='1334'> +0.0000000e+00 </wgt>
<wgt id='1335'> +0.0000000e+00 </wgt>
<wgt id='1336'> +0.0000000e+00 </wgt>
<wgt id='1337'> +0.0000000e+00 </wgt>
<wgt id='1338'> +0.0000000e+00 </wgt>
<wgt id='1339'> +0.0000000e+00 </wgt>
<wgt id='1340'> +0.0000000e+00 </wgt>
<wgt id='1341'> +0.0000000e+00 </wgt>
<wgt id='1342'> +0.0000000e+00 </wgt>
<wgt id='1343'> +0.0000000e+00 </wgt>
<wgt id='1344'> +0.0000000e+00 </wgt>
<wgt id='1345'> +0.0000000e+00 </wgt>
<wgt id='1346'> +0.0000000e+00 </wgt>
<wgt id='1347'> +0.0000000e+00 </wgt>
<wgt id='1348'> +0.0000000e+00 </wgt>
<wgt id='1349'> +0.0000000e+00 </wgt>
<wgt id='1350'> +0.0000000e+00 </wgt>
<wgt id='1351'> +0.0000000e+00 </wgt>
<wgt id='1352'> +0.0000000e+00 </wgt>
<wgt id='1353'> +0.0000000e+00 </wgt>
<wgt id='1354'> +0.0000000e+00 </wgt>
<wgt id='1355'> +0.0000000e+00 </wgt>
<wgt id='1356'> +0.0000000e+00 </wgt>
<wgt id='1357'> +0.0000000e+00 </wgt>
<wgt id='1358'> +0.0000000e+00 </wgt>
<wgt id='1359'> +0.0000000e+00 </wgt>
<wgt id='1360'> +0.0000000e+00 </wgt>
<wgt id='1361'> +0.0000000e+00 </wgt>
<wgt id='1362'> +0.0000000e+00 </wgt>
<wgt id='1363'> +0.0000000e+00 </wgt>
<wgt id='1364'> +0.0000000e+00 </wgt>
<wgt id='1365'> +0.0000000e+00 </wgt>
<wgt id='1366'> +0.0000000e+00 </wgt>
<wgt id='1367'> +0.0000000e+00 </wgt>
<wgt id='1368'> +0.0000000e+00 </wgt>
<wgt id='1369'> +0.0000000e+00 </wgt>
<wgt id='1370'> +0.0000000e+00 </wgt>
<wgt id='1371'> +0.0000000e+00 </wgt>
<wgt id='1372'> +0.0000000e+00 </wgt>
<wgt id='1373'> +0.0000000e+00 </wgt>
<wgt id='1374'> +0.0000000e+00 </wgt>
<wgt id='1375'> +0.0000000e+00 </wgt>
<wgt id='1376'> +0.0000000e+00 </wgt>
<wgt id='1377'> +0.0000000e+00 </wgt>
<wgt id='1378'> +0.0000000e+00 </wgt>
<wgt id='1379'> +0.0000000e+00 </wgt>
<wgt id='1380'> +0.0000000e+00 </wgt>
<wgt id='1381'> +0.0000000e+00 </wgt>
<wgt id='1382'> +0.0000000e+00 </wgt>
<wgt id='1383'> +0.0000000e+00 </wgt>
<wgt id='1384'> +0.0000000e+00 </wgt>
<wgt id='1385'> +0.0000000e+00 </wgt>
<wgt id='1386'> +0.0000000e+00 </wgt>
<wgt id='1387'> +0.0000000e+00 </wgt>
<wgt id='1388'> +0.0000000e+00 </wgt>
<wgt id='1389'> +0.0000000e+00 </wgt>
<wgt id='1390'> +0.0000000e+00 </wgt>
<wgt id='1391'> +0.0000000e+00 </wgt>
<wgt id='1392'> +0.0000000e+00 </wgt>
<wgt id='1393'> +0.0000000e+00 </wgt>
<wgt id='1394'> +0.0000000e+00 </wgt>
<wgt id='1395'> +0.0000000e+00 </wgt>
<wgt id='1396'> +0.0000000e+00 </wgt>
<wgt id='1397'> +0.0000000e+00 </wgt>
<wgt id='1398'> +0.0000000e+00 </wgt>
<wgt id='1399'> +0.0000000e+00 </wgt>
<wgt id='1400'> +0.0000000e+00 </wgt>
<wgt id='1401'> +0.0000000e+00 </wgt>
<wgt id='1402'> +0.0000000e+00 </wgt>
<wgt id='1403'> +0.0000000e+00 </wgt>
<wgt id='1404'> +0.0000000e+00 </wgt>
<wgt id='1405'> +0.0000000e+00 </wgt>
<wgt id='1406'> +0.0000000e+00 </wgt>
<wgt id='1407'> +0.0000000e+00 </wgt>
<wgt id='1408'> +0.0000000e+00 </wgt>
<wgt id='1409'> +0.0000000e+00 </wgt>
<wgt id='1410'> +0.0000000e+00 </wgt>
<wgt id='1411'> +0.0000000e+00 </wgt>
<wgt id='1412'> +0.0000000e+00 </wgt>
<wgt id='1413'> +0.0000000e+00 </wgt>
<wgt id='1414'> +0.0000000e+00 </wgt>
<wgt id='1415'> +0.0000000e+00 </wgt>
<wgt id='1416'> +0.0000000e+00 </wgt>
<wgt id='1417'> +0.0000000e+00 </wgt>
<wgt id='1418'> +0.0000000e+00 </wgt>
<wgt id='1419'> +0.0000000e+00 </wgt>
<wgt id='1420'> +0.0000000e+00 </wgt>
<wgt id='1421'> +0.0000000e+00 </wgt>
<wgt id='1422'> +0.0000000e+00 </wgt>
<wgt id='1423'> +0.0000000e+00 </wgt>
<wgt id='1424'> +0.0000000e+00 </wgt>
<wgt id='1425'> +0.0000000e+00 </wgt>
<wgt id='1426'> +0.0000000e+00 </wgt>
<wgt id='1427'> +0.0000000e+00 </wgt>
<wgt id='1428'> +0.0000000e+00 </wgt>
<wgt id='1429'> +0.0000000e+00 </wgt>
<wgt id='1430'> +0.0000000e+00 </wgt>
<wgt id='1431'> +0.0000000e+00 </wgt>
<wgt id='1432'> +0.0000000e+00 </wgt>
<wgt id='1433'> +0.0000000e+00 </wgt>
<wgt id='1434'> +0.0000000e+00 </wgt>
<wgt id='1435'> +0.0000000e+00 </wgt>
<wgt id='1436'> +0.0000000e+00 </wgt>
<wgt id='1437'> +0.0000000e+00 </wgt>
<wgt id='1438'> +0.0000000e+00 </wgt>
<wgt id='1439'> +0.0000000e+00 </wgt>
<wgt id='1440'> +0.0000000e+00 </wgt>
<wgt id='1441'> +0.0000000e+00 </wgt>
<wgt id='1442'> +0.0000000e+00 </wgt>
<wgt id='1443'> +0.0000000e+00 </wgt>
<wgt id='1444'> +0.0000000e+00 </wgt>
<wgt id='1445'> +0.0000000e+00 </wgt>
<wgt id='1446'> +0.0000000e+00 </wgt>
<wgt id='1447'> +0.0000000e+00 </wgt>
<wgt id='1448'> +0.0000000e+00 </wgt>
<wgt id='1449'> +0.0000000e+00 </wgt>
<wgt id='1450'> +0.0000000e+00 </wgt>
<wgt id='1451'> +0.0000000e+00 </wgt>
<wgt id='1452'> +0.0000000e+00 </wgt>
<wgt id='1453'> +0.0000000e+00 </wgt>
<wgt id='1454'> +0.0000000e+00 </wgt>
<wgt id='1455'> +0.0000000e+00 </wgt>
<wgt id='1456'> +0.0000000e+00 </wgt>
<wgt id='1457'> +0.0000000e+00 </wgt>
<wgt id='1458'> +0.0000000e+00 </wgt>
<wgt id='1459'> +0.0000000e+00 </wgt>
<wgt id='1460'> +0.0000000e+00 </wgt>
<wgt id='1461'> +0.0000000e+00 </wgt>
<wgt id='1462'> +0.0000000e+00 </wgt>
<wgt id='1463'> +0.0000000e+00 </wgt>
<wgt id='1464'> +0.0000000e+00 </wgt>
<wgt id='1465'> +0.0000000e+00 </wgt>
<wgt id='1466'> +0.0000000e+00 </wgt>
<wgt id='1467'> +0.0000000e+00 </wgt>
<wgt id='1468'> +0.0000000e+00 </wgt>
<wgt id='1469'> +0.0000000e+00 </wgt>
<wgt id='1470'> +0.0000000e+00 </wgt>
<wgt id='1471'> +0.0000000e+00 </wgt>
<wgt id='1472'> +0.0000000e+00 </wgt>
<wgt id='1473'> +0.0000000e+00 </wgt>
<wgt id='1474'> +0.0000000e+00 </wgt>
<wgt id='1475'> +0.0000000e+00 </wgt>
<wgt id='1476'> +0.0000000e+00 </wgt>
<wgt id='1477'> +0.0000000e+00 </wgt>
<wgt id='1478'> +0.0000000e+00 </wgt>
<wgt id='1479'> +0.0000000e+00 </wgt>
<wgt id='1480'> +0.0000000e+00 </wgt>
<wgt id='1481'> +0.0000000e+00 </wgt>
<wgt id='1482'> +0.0000000e+00 </wgt>
<wgt id='1483'> +0.0000000e+00 </wgt>
<wgt id='1484'> +0.0000000e+00 </wgt>
<wgt id='1485'> +0.0000000e+00 </wgt>
<wgt id='1486'> +0.0000000e+00 </wgt>
<wgt id='1487'> +0.0000000e+00 </wgt>
<wgt id='1488'> +0.0000000e+00 </wgt>
<wgt id='1489'> +0.0000000e+00 </wgt>
<wgt id='1490'> +0.0000000e+00 </wgt>
<wgt id='1491'> +0.0000000e+00 </wgt>
<wgt id='1492'> +0.0000000e+00 </wgt>
<wgt id='1493'> +0.0000000e+00 </wgt>
<wgt id='1494'> +0.0000000e+00 </wgt>
<wgt id='1495'> +0.0000000e+00 </wgt>
<wgt id='1496'> +0.0000000e+00 </wgt>
<wgt id='1497'> +0.0000000e+00 </wgt>
<wgt id='1498'> +0.0000000e+00 </wgt>
<wgt id='1499'> +0.0000000e+00 </wgt>
<wgt id='1500'> +0.0000000e+00 </wgt>
<wgt id='1501'> +0.0000000e+00 </wgt>
<wgt id='1502'> +0.0000000e+00 </wgt>
<wgt id='1503'> +0.0000000e+00 </wgt>
<wgt id='1504'> +0.0000000e+00 </wgt>
<wgt id='1505'> +0.0000000e+00 </wgt>
<wgt id='1506'> +0.0000000e+00 </wgt>
<wgt id='1507'> +0.0000000e+00 </wgt>
<wgt id='1508'> +0.0000000e+00 </wgt>
<wgt id='1509'> +0.0000000e+00 </wgt>
<wgt id='1510'> +0.0000000e+00 </wgt>
<wgt id='1511'> +0.0000000e+00 </wgt>
<wgt id='1512'> +0.0000000e+00 </wgt>
<wgt id='1513'> +0.0000000e+00 </wgt>
<wgt id='1514'> +0.0000000e+00 </wgt>
<wgt id='1515'> +0.0000000e+00 </wgt>
<wgt id='1516'> +0.0000000e+00 </wgt>
<wgt id='1517'> +0.0000000e+00 </wgt>
<wgt id='1518'> +0.0000000e+00 </wgt>
<wgt id='1519'> +0.0000000e+00 </wgt>
<wgt id='1520'> +0.0000000e+00 </wgt>
<wgt id='1521'> +0.0000000e+00 </wgt>
<wgt id='1522'> +0.0000000e+00 </wgt>
<wgt id='1523'> +0.0000000e+00 </wgt>
<wgt id='1524'> +0.0000000e+00 </wgt>
<wgt id='1525'> +0.0000000e+00 </wgt>
<wgt id='1526'> +0.0000000e+00 </wgt>
<wgt id='1527'> +0.0000000e+00 </wgt>
<wgt id='1528'> +0.0000000e+00 </wgt>
<wgt id='1529'> +0.0000000e+00 </wgt>
<wgt id='1530'> +0.0000000e+00 </wgt>
<wgt id='1531'> +0.0000000e+00 </wgt>
<wgt id='1532'> +0.0000000e+00 </wgt>
<wgt id='1533'> +0.0000000e+00 </wgt>
<wgt id='1534'> +0.0000000e+00 </wgt>
<wgt id='1535'> +0.0000000e+00 </wgt>
<wgt id='1536'> +0.0000000e+00 </wgt>
<wgt id='1537'> +0.0000000e+00 </wgt>
<wgt id='1538'> +0.0000000e+00 </wgt>
<wgt id='1539'> +0.0000000e+00 </wgt>
<wgt id='1540'> +0.0000000e+00 </wgt>
<wgt id='1541'> +0.0000000e+00 </wgt>
<wgt id='1542'> +0.0000000e+00 </wgt>
<wgt id='1543'> +0.0000000e+00 </wgt>
<wgt id='1544'> +0.0000000e+00 </wgt>
<wgt id='1545'> +0.0000000e+00 </wgt>
<wgt id='1546'> +0.0000000e+00 </wgt>
<wgt id='1547'> +0.0000000e+00 </wgt>
<wgt id='1548'> +0.0000000e+00 </wgt>
<wgt id='1549'> +0.0000000e+00 </wgt>
<wgt id='1550'> +0.0000000e+00 </wgt>
<wgt id='1551'> +0.0000000e+00 </wgt>
<wgt id='1552'> +0.0000000e+00 </wgt>
<wgt id='1553'> +0.0000000e+00 </wgt>
<wgt id='1554'> +0.0000000e+00 </wgt>
<wgt id='1555'> +0.0000000e+00 </wgt>
<wgt id='1556'> +0.0000000e+00 </wgt>
<wgt id='1557'> +0.0000000e+00 </wgt>
<wgt id='1558'> +0.0000000e+00 </wgt>
<wgt id='1559'> +0.0000000e+00 </wgt>
<wgt id='1560'> +0.0000000e+00 </wgt>
<wgt id='1561'> +0.0000000e+00 </wgt>
<wgt id='1562'> +0.0000000e+00 </wgt>
<wgt id='1563'> +0.0000000e+00 </wgt>
<wgt id='1564'> +0.0000000e+00 </wgt>
<wgt id='1565'> +0.0000000e+00 </wgt>
<wgt id='1566'> +0.0000000e+00 </wgt>
<wgt id='1567'> +0.0000000e+00 </wgt>
<wgt id='1568'> +0.0000000e+00 </wgt>
<wgt id='1569'> +0.0000000e+00 </wgt>
<wgt id='1570'> +0.0000000e+00 </wgt>
<wgt id='1571'> +0.0000000e+00 </wgt>
<wgt id='1572'> +0.0000000e+00 </wgt>
<wgt id='1573'> +0.0000000e+00 </wgt>
<wgt id='1574'> +0.0000000e+00 </wgt>
<wgt id='1575'> +0.0000000e+00 </wgt>
<wgt id='1576'> +0.0000000e+00 </wgt>
<wgt id='1577'> +0.0000000e+00 </wgt>
<wgt id='1578'> +0.0000000e+00 </wgt>
<wgt id='1579'> +0.0000000e+00 </wgt>
<wgt id='1580'> +0.0000000e+00 </wgt>
<wgt id='1581'> +0.0000000e+00 </wgt>
<wgt id='1582'> +0.0000000e+00 </wgt>
<wgt id='1583'> +0.0000000e+00 </wgt>
<wgt id='1584'> +0.0000000e+00 </wgt>
<wgt id='1585'> +0.0000000e+00 </wgt>
<wgt id='1586'> +0.0000000e+00 </wgt>
<wgt id='1587'> +0.0000000e+00 </wgt>
<wgt id='1588'> +0.0000000e+00 </wgt>
<wgt id='1589'> +0.0000000e+00 </wgt>
<wgt id='1590'> +0.0000000e+00 </wgt>
<wgt id='1591'> +0.0000000e+00 </wgt>
<wgt id='1592'> +0.0000000e+00 </wgt>
<wgt id='1593'> +0.0000000e+00 </wgt>
<wgt id='1594'> +0.0000000e+00 </wgt>
<wgt id='1595'> +0.0000000e+00 </wgt>
<wgt id='1596'> +0.0000000e+00 </wgt>
<wgt id='1597'> +0.0000000e+00 </wgt>
<wgt id='1598'> +0.0000000e+00 </wgt>
<wgt id='1599'> +0.0000000e+00 </wgt>
<wgt id='1600'> +0.0000000e+00 </wgt>
<wgt id='1601'> +0.0000000e+00 </wgt>
<wgt id='1602'> +0.0000000e+00 </wgt>
<wgt id='1603'> +0.0000000e+00 </wgt>
<wgt id='1604'> +0.0000000e+00 </wgt>
<wgt id='1605'> +0.0000000e+00 </wgt>
<wgt id='1606'> +0.0000000e+00 </wgt>
<wgt id='1607'> +0.0000000e+00 </wgt>
<wgt id='1608'> +0.0000000e+00 </wgt>
<wgt id='1609'> +0.0000000e+00 </wgt>
<wgt id='1610'> +0.0000000e+00 </wgt>
<wgt id='1611'> +0.0000000e+00 </wgt>
<wgt id='1612'> +1.5756175e-04 </wgt>
<wgt id='1613'> +1.5730303e-04 </wgt>
<wgt id='1614'> +1.5792676e-04 </wgt>
<wgt id='1615'> +1.5786770e-04 </wgt>
<wgt id='1616'> +1.5752210e-04 </wgt>
<wgt id='1617'> +1.5756767e-04 </wgt>
<wgt id='1618'> +1.5769688e-04 </wgt>
<wgt id='1619'> +1.5713782e-04 </wgt>
<wgt id='1620'> +1.5764799e-04 </wgt>
<wgt id='1621'> +1.5758001e-04 </wgt>
<wgt id='1622'> +1.5789323e-04 </wgt>
<wgt id='1623'> +1.5727965e-04 </wgt>
<wgt id='1624'> +1.5711562e-04 </wgt>
<wgt id='1625'> +1.5731397e-04 </wgt>
<wgt id='1626'> +1.5803755e-04 </wgt>
<wgt id='1627'> +1.5721772e-04 </wgt>
<wgt id='1628'> +1.5767959e-04 </wgt>
<wgt id='1629'> +1.5773690e-04 </wgt>
<wgt id='1630'> +1.5753832e-04 </wgt>
<wgt id='1631'> +1.5769368e-04 </wgt>
<wgt id='1632'> +1.5744592e-04 </wgt>
<wgt id='1633'> +1.5739400e-04 </wgt>
<wgt id='1634'> +1.5783705e-04 </wgt>
<wgt id='1635'> +1.5725000e-04 </wgt>
<wgt id='1636'> +1.5755043e-04 </wgt>
<wgt id='1637'> +1.5794549e-04 </wgt>
<wgt id='1638'> +1.5762074e-04 </wgt>
<wgt id='1639'> +1.5789121e-04 </wgt>
<wgt id='1640'> +1.5750885e-04 </wgt>
<wgt id='1641'> +1.5650818e-04 </wgt>
<wgt id='1642'> +1.5724264e-04 </wgt>
<wgt id='1643'> +1.5752933e-04 </wgt>
<wgt id='1644'> +1.5717236e-04 </wgt>
<wgt id='1645'> +1.5754040e-04 </wgt>
<wgt id='1646'> +1.5788648e-04 </wgt>
<wgt id='1647'> +1.5731309e-04 </wgt>
<wgt id='1648'> +1.5744703e-04 </wgt>
<wgt id='1649'> +1.5795479e-04 </wgt>
<wgt id='1650'> +1.5736392e-04 </wgt>
<wgt id='1651'> +1.5749496e-04 </wgt>
<wgt id='1652'> +1.5766834e-04 </wgt>
<wgt id='1653'> +1.5738699e-04 </wgt>
<wgt id='1654'> +1.5731625e-04 </wgt>
<wgt id='1655'> +1.5795387e-04 </wgt>
<wgt id='1656'> +1.5749585e-04 </wgt>
<wgt id='1657'> +1.5773287e-04 </wgt>
<wgt id='1658'> +1.5781123e-04 </wgt>
<wgt id='1659'> +1.5801197e-04 </wgt>
<wgt id='1660'> +1.5800725e-04 </wgt>
<wgt id='1661'> +1.5776547e-04 </wgt>
<wgt id='1662'> +1.5847776e-04 </wgt>
<wgt id='1663'> +1.5848043e-04 </wgt>
<wgt id='1664'> +1.5762640e-04 </wgt>
<wgt id='1665'> +1.5781960e-04 </wgt>
<wgt id='1666'> +1.5809404e-04 </wgt>
<wgt id='1667'> +1.5772028e-04 </wgt>
<wgt id='1668'> +1.5735191e-04 </wgt>
<wgt id='1669'> +1.5768443e-04 </wgt>
<wgt id='1670'> +1.5838026e-04 </wgt>
<wgt id='1671'> +1.5805595e-04 </wgt>
<wgt id='1672'> +1.5740835e-04 </wgt>
<wgt id='1673'> +1.5785246e-04 </wgt>
<wgt id='1674'> +1.5750774e-04 </wgt>
<wgt id='1675'> +1.5779692e-04 </wgt>
<wgt id='1676'> +1.5770024e-04 </wgt>
<wgt id='1677'> +1.5779479e-04 </wgt>
<wgt id='1678'> +1.5748403e-04 </wgt>
<wgt id='1679'> +1.5795598e-04 </wgt>
<wgt id='1680'> +1.5746292e-04 </wgt>
<wgt id='1681'> +1.5786413e-04 </wgt>
<wgt id='1682'> +1.5733532e-04 </wgt>
<wgt id='1683'> +1.5753440e-04 </wgt>
<wgt id='1684'> +1.5720556e-04 </wgt>
<wgt id='1685'> +1.5727124e-04 </wgt>
<wgt id='1686'> +1.5773941e-04 </wgt>
<wgt id='1687'> +1.5784195e-04 </wgt>
<wgt id='1688'> +1.5780028e-04 </wgt>
<wgt id='1689'> +1.5733385e-04 </wgt>
<wgt id='1690'> +1.5757122e-04 </wgt>
<wgt id='1691'> +1.5760586e-04 </wgt>
<wgt id='1692'> +1.5769507e-04 </wgt>
<wgt id='1693'> +1.5733072e-04 </wgt>
<wgt id='1694'> +1.5759855e-04 </wgt>
<wgt id='1695'> +1.5757740e-04 </wgt>
<wgt id='1696'> +1.5790913e-04 </wgt>
<wgt id='1697'> +1.5742781e-04 </wgt>
<wgt id='1698'> +1.5743565e-04 </wgt>
<wgt id='1699'> +1.5775908e-04 </wgt>
<wgt id='1700'> +1.5748564e-04 </wgt>
<wgt id='1701'> +1.5765498e-04 </wgt>
<wgt id='1702'> +1.5764508e-04 </wgt>
<wgt id='1703'> +1.5758883e-04 </wgt>
<wgt id='1704'> +1.5746672e-04 </wgt>
<wgt id='1705'> +1.5779724e-04 </wgt>
<wgt id='1706'> +1.5767756e-04 </wgt>
<wgt id='1707'> +1.5766834e-04 </wgt>
<wgt id='1708'> +1.5761312e-04 </wgt>
<wgt id='1709'> +1.5789097e-04 </wgt>
<wgt id='1710'> +1.5764718e-04 </wgt>
<wgt id='1711'> +1.5761802e-04 </wgt>
<wgt id='1712'> +1.5766826e-04 </wgt>
<wgt id='1713'> +1.5467450e-04 </wgt>
<wgt id='1714'> +1.6019997e-04 </wgt>
<wgt id='1715'> +0.0000000e+00 </wgt>
<wgt id='1716'> +0.0000000e+00 </wgt>
<wgt id='1717'> +0.0000000e+00 </wgt>
<wgt id='1718'> +0.0000000e+00 </wgt>
<wgt id='1719'> +0.0000000e+00 </wgt>
<wgt id='1720'> +0.0000000e+00 </wgt>
<wgt id='1721'> +0.0000000e+00 </wgt>
<wgt id='1722'> +0.0000000e+00 </wgt>
<wgt id='1723'> +0.0000000e+00 </wgt>
<wgt id='1724'> +0.0000000e+00 </wgt>
<wgt id='1725'> +0.0000000e+00 </wgt>
<wgt id='1726'> +0.0000000e+00 </wgt>
<wgt id='1727'> +0.0000000e+00 </wgt>
<wgt id='1728'> +0.0000000e+00 </wgt>
<wgt id='1729'> +0.0000000e+00 </wgt>
<wgt id='1730'> +0.0000000e+00 </wgt>
<wgt id='1731'> +0.0000000e+00 </wgt>
<wgt id='1732'> +0.0000000e+00 </wgt>
<wgt id='1733'> +0.0000000e+00 </wgt>
<wgt id='1734'> +0.0000000e+00 </wgt>
<wgt id='1735'> +0.0000000e+00 </wgt>
<wgt id='1736'> +0.0000000e+00 </wgt>
<wgt id='1737'> +0.0000000e+00 </wgt>
<wgt id='1738'> +0.0000000e+00 </wgt>
<wgt id='1739'> +0.0000000e+00 </wgt>
<wgt id='1740'> +0.0000000e+00 </wgt>
<wgt id='1741'> +0.0000000e+00 </wgt>
<wgt id='1742'> +0.0000000e+00 </wgt>
<wgt id='1743'> +0.0000000e+00 </wgt>
<wgt id='1744'> +0.0000000e+00 </wgt>
<wgt id='1745'> +0.0000000e+00 </wgt>
<wgt id='1746'> +0.0000000e+00 </wgt>
<wgt id='1747'> +0.0000000e+00 </wgt>
<wgt id='1748'> +0.0000000e+00 </wgt>
<wgt id='1749'> +0.0000000e+00 </wgt>
<wgt id='1750'> +0.0000000e+00 </wgt>
<wgt id='1751'> +0.0000000e+00 </wgt>
<wgt id='1752'> +0.0000000e+00 </wgt>
<wgt id='1753'> +0.0000000e+00 </wgt>
<wgt id='1754'> +0.0000000e+00 </wgt>
<wgt id='1755'> +0.0000000e+00 </wgt>
<wgt id='1756'> +0.0000000e+00 </wgt>
<wgt id='1757'> +0.0000000e+00 </wgt>
<wgt id='1758'> +0.0000000e+00 </wgt>
<wgt id='1759'> +0.0000000e+00 </wgt>
<wgt id='1760'> +0.0000000e+00 </wgt>
<wgt id='1761'> +0.0000000e+00 </wgt>
<wgt id='1762'> +0.0000000e+00 </wgt>
<wgt id='1763'> +0.0000000e+00 </wgt>
<wgt id='1764'> +0.0000000e+00 </wgt>
<wgt id='1765'> +0.0000000e+00 </wgt>
<wgt id='1766'> +0.0000000e+00 </wgt>
<wgt id='1767'> +0.0000000e+00 </wgt>
<wgt id='1768'> +0.0000000e+00 </wgt>
<wgt id='1769'> +0.0000000e+00 </wgt>
<wgt id='1770'> +0.0000000e+00 </wgt>
<wgt id='1771'> +0.0000000e+00 </wgt>
<wgt id='1772'> +0.0000000e+00 </wgt>
<wgt id='1773'> +0.0000000e+00 </wgt>
<wgt id='1774'> +0.0000000e+00 </wgt>
<wgt id='1775'> +0.0000000e+00 </wgt>
<wgt id='1776'> +0.0000000e+00 </wgt>
<wgt id='1777'> +0.0000000e+00 </wgt>
<wgt id='1778'> +0.0000000e+00 </wgt>
<wgt id='1779'> +0.0000000e+00 </wgt>
<wgt id='1780'> +0.0000000e+00 </wgt>
<wgt id='1781'> +0.0000000e+00 </wgt>
<wgt id='1782'> +0.0000000e+00 </wgt>
<wgt id='1783'> +0.0000000e+00 </wgt>
<wgt id='1784'> +0.0000000e+00 </wgt>
<wgt id='1785'> +0.0000000e+00 </wgt>
<wgt id='1786'> +0.0000000e+00 </wgt>
<wgt id='1787'> +0.0000000e+00 </wgt>
<wgt id='1788'> +0.0000000e+00 </wgt>
<wgt id='1789'> +0.0000000e+00 </wgt>
<wgt id='1790'> +0.0000000e+00 </wgt>
<wgt id='1791'> +0.0000000e+00 </wgt>
<wgt id='1792'> +0.0000000e+00 </wgt>
<wgt id='1793'> +0.0000000e+00 </wgt>
<wgt id='1794'> +0.0000000e+00 </wgt>
<wgt id='1795'> +0.0000000e+00 </wgt>
<wgt id='1796'> +0.0000000e+00 </wgt>
<wgt id='1797'> +0.0000000e+00 </wgt>
<wgt id='1798'> +0.0000000e+00 </wgt>
<wgt id='1799'> +0.0000000e+00 </wgt>
<wgt id='1800'> +0.0000000e+00 </wgt>
<wgt id='1801'> +0.0000000e+00 </wgt>
<wgt id='1802'> +0.0000000e+00 </wgt>
<wgt id='1803'> +0.0000000e+00 </wgt>
<wgt id='1804'> +0.0000000e+00 </wgt>
<wgt id='1805'> +0.0000000e+00 </wgt>
<wgt id='1806'> +0.0000000e+00 </wgt>
<wgt id='1807'> +0.0000000e+00 </wgt>
<wgt id='1808'> +0.0000000e+00 </wgt>
<wgt id='1809'> +0.0000000e+00 </wgt>
<wgt id='1810'> +0.0000000e+00 </wgt>
<wgt id='1811'> +0.0000000e+00 </wgt>
<wgt id='1812'> +0.0000000e+00 </wgt>
<wgt id='1813'> +0.0000000e+00 </wgt>
<wgt id='1814'> +0.0000000e+00 </wgt>
<wgt id='1815'> +0.0000000e+00 </wgt>
<wgt id='1816'> +0.0000000e+00 </wgt>
<wgt id='1817'> +0.0000000e+00 </wgt>
<wgt id='1818'> +0.0000000e+00 </wgt>
<wgt id='1819'> +0.0000000e+00 </wgt>
<wgt id='1820'> +0.0000000e+00 </wgt>
<wgt id='1821'> +0.0000000e+00 </wgt>
<wgt id='1822'> +0.0000000e+00 </wgt>
<wgt id='1823'> +0.0000000e+00 </wgt>
<wgt id='1824'> +0.0000000e+00 </wgt>
<wgt id='1825'> +0.0000000e+00 </wgt>
<wgt id='1826'> +0.0000000e+00 </wgt>
<wgt id='1827'> +0.0000000e+00 </wgt>
<wgt id='1828'> +0.0000000e+00 </wgt>
<wgt id='1829'> +0.0000000e+00 </wgt>
<wgt id='1830'> +0.0000000e+00 </wgt>
<wgt id='1831'> +0.0000000e+00 </wgt>
<wgt id='1832'> +0.0000000e+00 </wgt>
<wgt id='1833'> +0.0000000e+00 </wgt>
<wgt id='1834'> +0.0000000e+00 </wgt>
<wgt id='1835'> +0.0000000e+00 </wgt>
<wgt id='1836'> +0.0000000e+00 </wgt>
<wgt id='1837'> +0.0000000e+00 </wgt>
<wgt id='1838'> +0.0000000e+00 </wgt>
<wgt id='1839'> +0.0000000e+00 </wgt>
<wgt id='1840'> +0.0000000e+00 </wgt>
<wgt id='1841'> +0.0000000e+00 </wgt>
<wgt id='1842'> +0.0000000e+00 </wgt>
<wgt id='1843'> +0.0000000e+00 </wgt>
<wgt id='1844'> +0.0000000e+00 </wgt>
<wgt id='1845'> +0.0000000e+00 </wgt>
<wgt id='1846'> +0.0000000e+00 </wgt>
<wgt id='1847'> +0.0000000e+00 </wgt>
<wgt id='1848'> +0.0000000e+00 </wgt>
<wgt id='1849'> +0.0000000e+00 </wgt>
<wgt id='1850'> +0.0000000e+00 </wgt>
<wgt id='1851'> +0.0000000e+00 </wgt>
<wgt id='1852'> +0.0000000e+00 </wgt>
<wgt id='1853'> +0.0000000e+00 </wgt>
<wgt id='1854'> +0.0000000e+00 </wgt>
<wgt id='1855'> +0.0000000e+00 </wgt>
<wgt id='1856'> +0.0000000e+00 </wgt>
<wgt id='1857'> +0.0000000e+00 </wgt>
<wgt id='1858'> +0.0000000e+00 </wgt>
<wgt id='1859'> +0.0000000e+00 </wgt>
<wgt id='1860'> +0.0000000e+00 </wgt>
<wgt id='1861'> +0.0000000e+00 </wgt>
<wgt id='1862'> +0.0000000e+00 </wgt>
<wgt id='1863'> +0.0000000e+00 </wgt>
<wgt id='1864'> +0.0000000e+00 </wgt>
<wgt id='1865'> +0.0000000e+00 </wgt>
<wgt id='1866'> +0.0000000e+00 </wgt>
<wgt id='1867'> +0.0000000e+00 </wgt>
<wgt id='1868'> +0.0000000e+00 </wgt>
<wgt id='1869'> +0.0000000e+00 </wgt>
<wgt id='1870'> +0.0000000e+00 </wgt>
<wgt id='1871'> +0.0000000e+00 </wgt>
<wgt id='1872'> +0.0000000e+00 </wgt>
<wgt id='1873'> +0.0000000e+00 </wgt>
<wgt id='1874'> +0.0000000e+00 </wgt>
<wgt id='1875'> +0.0000000e+00 </wgt>
<wgt id='1876'> +0.0000000e+00 </wgt>
<wgt id='1877'> +0.0000000e+00 </wgt>
<wgt id='1878'> +0.0000000e+00 </wgt>
<wgt id='1879'> +0.0000000e+00 </wgt>
<wgt id='1880'> +0.0000000e+00 </wgt>
<wgt id='1881'> +0.0000000e+00 </wgt>
<wgt id='1882'> +0.0000000e+00 </wgt>
<wgt id='1883'> +0.0000000e+00 </wgt>
<wgt id='1884'> +0.0000000e+00 </wgt>
<wgt id='1885'> +0.0000000e+00 </wgt>
<wgt id='1886'> +0.0000000e+00 </wgt>
<wgt id='1887'> +0.0000000e+00 </wgt>
<wgt id='1888'> +0.0000000e+00 </wgt>
<wgt id='1889'> +0.0000000e+00 </wgt>
<wgt id='1890'> +0.0000000e+00 </wgt>
<wgt id='1891'> +0.0000000e+00 </wgt>
<wgt id='1892'> +0.0000000e+00 </wgt>
<wgt id='1893'> +0.0000000e+00 </wgt>
<wgt id='1894'> +0.0000000e+00 </wgt>
<wgt id='1895'> +0.0000000e+00 </wgt>
<wgt id='1896'> +0.0000000e+00 </wgt>
<wgt id='1897'> +0.0000000e+00 </wgt>
<wgt id='1898'> +0.0000000e+00 </wgt>
<wgt id='1899'> +0.0000000e+00 </wgt>
<wgt id='1900'> +0.0000000e+00 </wgt>
<wgt id='1901'> +0.0000000e+00 </wgt>
<wgt id='1902'> +0.0000000e+00 </wgt>
<wgt id='1903'> +0.0000000e+00 </wgt>
<wgt id='1904'> +0.0000000e+00 </wgt>
<wgt id='1905'> +0.0000000e+00 </wgt>
<wgt id='1906'> +0.0000000e+00 </wgt>
<wgt id='1907'> +0.0000000e+00 </wgt>
<wgt id='1908'> +0.0000000e+00 </wgt>
<wgt id='1909'> +0.0000000e+00 </wgt>
<wgt id='1910'> +0.0000000e+00 </wgt>
<wgt id='1911'> +0.0000000e+00 </wgt>
<wgt id='1912'> +0.0000000e+00 </wgt>
<wgt id='1913'> +0.0000000e+00 </wgt>
<wgt id='1914'> +0.0000000e+00 </wgt>
<wgt id='1915'> +0.0000000e+00 </wgt>
<wgt id='1916'> +0.0000000e+00 </wgt>
<wgt id='1917'> +0.0000000e+00 </wgt>
<wgt id='1918'> +0.0000000e+00 </wgt>
<wgt id='1919'> +0.0000000e+00 </wgt>
<wgt id='1920'> +0.0000000e+00 </wgt>
<wgt id='1921'> +0.0000000e+00 </wgt>
<wgt id='1922'> +0.0000000e+00 </wgt>
<wgt id='1923'> +0.0000000e+00 </wgt>
<wgt id='1924'> +0.0000000e+00 </wgt>
<wgt id='1925'> +0.0000000e+00 </wgt>
<wgt id='1926'> +0.0000000e+00 </wgt>
<wgt id='1927'> +0.0000000e+00 </wgt>
<wgt id='1928'> +0.0000000e+00 </wgt>
<wgt id='1929'> +0.0000000e+00 </wgt>
<wgt id='1930'> +0.0000000e+00 </wgt>
<wgt id='1931'> +0.0000000e+00 </wgt>
<wgt id='1932'> +0.0000000e+00 </wgt>
<wgt id='1933'> +0.0000000e+00 </wgt>
<wgt id='1934'> +0.0000000e+00 </wgt>
<wgt id='1935'> +0.0000000e+00 </wgt>
<wgt id='1936'> +0.0000000e+00 </wgt>
<wgt id='1937'> +0.0000000e+00 </wgt>
<wgt id='1938'> +0.0000000e+00 </wgt>
<wgt id='1939'> +0.0000000e+00 </wgt>
<wgt id='1940'> +0.0000000e+00 </wgt>
<wgt id='1941'> +0.0000000e+00 </wgt>
<wgt id='1942'> +0.0000000e+00 </wgt>
<wgt id='1943'> +0.0000000e+00 </wgt>
<wgt id='1944'> +0.0000000e+00 </wgt>
<wgt id='1945'> +0.0000000e+00 </wgt>
<wgt id='1946'> +0.0000000e+00 </wgt>
<wgt id='1947'> +0.0000000e+00 </wgt>
<wgt id='1948'> +0.0000000e+00 </wgt>
<wgt id='1949'> +0.0000000e+00 </wgt>
<wgt id='1950'> +0.0000000e+00 </wgt>
<wgt id='1951'> +0.0000000e+00 </wgt>
<wgt id='1952'> +0.0000000e+00 </wgt>
<wgt id='1953'> +0.0000000e+00 </wgt>
<wgt id='1954'> +0.0000000e+00 </wgt>
<wgt id='1955'> +0.0000000e+00 </wgt>
<wgt id='1956'> +0.0000000e+00 </wgt>
<wgt id='1957'> +0.0000000e+00 </wgt>
<wgt id='1958'> +0.0000000e+00 </wgt>
<wgt id='1959'> +0.0000000e+00 </wgt>
<wgt id='1960'> +0.0000000e+00 </wgt>
<wgt id='1961'> +0.0000000e+00 </wgt>
<wgt id='1962'> +0.0000000e+00 </wgt>
<wgt id='1963'> +0.0000000e+00 </wgt>
<wgt id='1964'> +0.0000000e+00 </wgt>
<wgt id='1965'> +0.0000000e+00 </wgt>
<wgt id='1966'> +0.0000000e+00 </wgt>
<wgt id='1967'> +0.0000000e+00 </wgt>
<wgt id='1968'> +0.0000000e+00 </wgt>
<wgt id='1969'> +0.0000000e+00 </wgt>
<wgt id='1970'> +0.0000000e+00 </wgt>
<wgt id='1971'> +0.0000000e+00 </wgt>
<wgt id='1972'> +0.0000000e+00 </wgt>
<wgt id='1973'> +0.0000000e+00 </wgt>
<wgt id='1974'> +0.0000000e+00 </wgt>
<wgt id='1975'> +0.0000000e+00 </wgt>
<wgt id='1976'> +0.0000000e+00 </wgt>
<wgt id='1977'> +0.0000000e+00 </wgt>
<wgt id='1978'> +0.0000000e+00 </wgt>
<wgt id='1979'> +0.0000000e+00 </wgt>
<wgt id='1980'> +0.0000000e+00 </wgt>
<wgt id='1981'> +0.0000000e+00 </wgt>
<wgt id='1982'> +0.0000000e+00 </wgt>
<wgt id='1983'> +0.0000000e+00 </wgt>
<wgt id='1984'> +0.0000000e+00 </wgt>
<wgt id='1985'> +0.0000000e+00 </wgt>
<wgt id='1986'> +0.0000000e+00 </wgt>
<wgt id='1987'> +0.0000000e+00 </wgt>
<wgt id='1988'> +0.0000000e+00 </wgt>
<wgt id='1989'> +0.0000000e+00 </wgt>
<wgt id='1990'> +0.0000000e+00 </wgt>
<wgt id='1991'> +0.0000000e+00 </wgt>
<wgt id='1992'> +0.0000000e+00 </wgt>
<wgt id='1993'> +0.0000000e+00 </wgt>
<wgt id='1994'> +0.0000000e+00 </wgt>
<wgt id='1995'> +0.0000000e+00 </wgt>
<wgt id='1996'> +0.0000000e+00 </wgt>
<wgt id='1997'> +0.0000000e+00 </wgt>
<wgt id='1998'> +0.0000000e+00 </wgt>
<wgt id='1999'> +0.0000000e+00 </wgt>
<wgt id='2000'> +0.0000000e+00 </wgt>
<wgt id='2001'> +0.0000000e+00 </wgt>
<wgt id='2002'> +0.0000000e+00 </wgt>
<wgt id='2003'> +0.0000000e+00 </wgt>
<wgt id='2004'> +0.0000000e+00 </wgt>
<wgt id='2005'> +0.0000000e+00 </wgt>
<wgt id='2006'> +0.0000000e+00 </wgt>
<wgt id='2007'> +0.0000000e+00 </wgt>
<wgt id='2008'> +0.0000000e+00 </wgt>
<wgt id='2009'> +0.0000000e+00 </wgt>
<wgt id='2010'> +0.0000000e+00 </wgt>
<wgt id='2011'> +0.0000000e+00 </wgt>
<wgt id='2012'> +0.0000000e+00 </wgt>
<wgt id='2013'> +0.0000000e+00 </wgt>
<wgt id='2014'> +0.0000000e+00 </wgt>
<wgt id='2015'> +0.0000000e+00 </wgt>
<wgt id='2016'> +0.0000000e+00 </wgt>
<wgt id='2017'> +0.0000000e+00 </wgt>
<wgt id='2018'> +0.0000000e+00 </wgt>
<wgt id='2019'> +0.0000000e+00 </wgt>
<wgt id='2020'> +0.0000000e+00 </wgt>
<wgt id='2021'> +0.0000000e+00 </wgt>
<wgt id='2022'> +0.0000000e+00 </wgt>
</rwgt>
</event>
<event>
14      1 +1.5732536e-04 7.42325900e+02 7.81860800e-03 9.30123900e-02
        2 -1    0    0  501    0 +0.0000000000e+00 +0.0000000000e+00 +3.0029559923e+03 3.0029559923e+03 2.5500000000e-03 0.0000e+00 -1.0000e+00
        5 -1    0    0  502    0 +0.0000000000e+00 +0.0000000000e+00 -4.2131032630e+02 4.2133654131e+02 4.7000000000e+00 0.0000e+00 -1.0000e+00
        2  1    1    2  501    0 -2.3085118491e+02 -3.2697775759e+02 +1.3872031308e+03 1.4437933542e+03 2.5500000000e-03 0.0000e+00 -1.0000e+00
      -24  2    1    2    0    0 +3.1521953096e+02 -3.3174211494e+02 +3.0863514528e+02 5.5776989959e+02 8.0221097359e+01 0.0000e+00 0.0000e+00
        3  1    4    4  503    0 +1.3498260222e+02 -9.7844805453e+01 +1.4013782741e+02 2.1779010475e+02 1.0100000000e-01 0.0000e+00 -1.0000e+00
       -4  1    4    4    0  503 +1.8023692874e+02 -2.3389730949e+02 +1.6849731787e+02 3.3997979483e+02 1.2700000000e+00 0.0000e+00 1.0000e+00
       23  2    1    2    0    0 +1.9580728093e+02 -8.5004808900e+01 +1.6016325862e+01 2.3202276923e+02 8.9508289819e+01 0.0000e+00 0.0000e+00
       16  1    7    7    0    0 +3.6787412679e+01 -5.7831240812e+01 +1.7311509846e+01 7.0692676556e+01 0.0000000000e+00 0.0000e+00 -1.0000e+00
      -16  1    7    7    0    0 +1.5901986825e+02 -2.7173568089e+01 -1.2951839844e+00 1.6133009267e+02 0.0000000000e+00 0.0000e+00 1.0000e+00
        6  2    1    2  502    0 -2.8017562698e+02 +7.4372468143e+02 +8.6979106408e+02 1.1907065106e+03 1.7210669811e+02 0.0000e+00 0.0000e+00
        5  1   10   10  502    0 -2.0879119068e+02 +5.8400535860e+02 +6.8837718753e+02 9.2657501720e+02 4.7000000000e+00 0.0000e+00 -1.0000e+00
       24  2   10   10    0    0 -7.1384436297e+01 +1.5971932283e+02 +1.8141387655e+02 2.6413149342e+02 7.9047146554e+01 0.0000e+00 0.0000e+00
       12  1   12   12    0    0 +1.6898850509e+01 +3.8117021481e+01 +4.0526763821e+01 5.8145481862e+01 0.0000000000e+00 0.0000e+00 -1.0000e+00
      -11  1   12   12    0    0 -8.8283286805e+01 +1.2160230135e+02 +1.4088711273e+02 2.0598601155e+02 5.1100000000e-04 0.0000e+00 1.0000e+00
<mgrwt>
<rscale>  0 0.54507859e+03</rscale>
<asrwt>0</asrwt>
<pdfrwt beam="1">  1        2 0.42899372e+00 0.40024289e+03</pdfrwt>
<pdfrwt beam="2">  1        5 0.60189324e-01 0.74232590e+03</pdfrwt>
<totfact> 0.26155736e+00</totfact>
</mgrwt>
<rwgt>
<wgt id='1001'> +1.5732536e-04 </wgt>
<wgt id='1002'> +1.3675072e-04 </wgt>
<wgt id='1003'> +1.3675067e-04 </wgt>
<wgt id='1004'> +1.4364866e-04 </wgt>
<wgt id='1005'> +1.3508491e-04 </wgt>
<wgt id='1006'> +1.5732536e-04 </wgt>
<wgt id='1007'> +1.3675072e-04 </wgt>
<wgt id='1008'> +1.3675067e-04 </wgt>
<wgt id='1009'> +1.4364866e-04 </wgt>
<wgt id='1010'> +1.3508491e-04 </wgt>
<wgt id='1011'> +1.5732536e-04 </wgt>
<wgt id='1012'> +1.3675072e-04 </wgt>
<wgt id='1013'> +1.3675067e-04 </wgt>
<wgt id='1014'> +1.4364866e-04 </wgt>
<wgt id='1015'> +1.3508491e-04 </wgt>
<wgt id='1016'> +1.4917281e-04 </wgt>
<wgt id='1017'> +1.2987501e-04 </wgt>
<wgt id='1018'> +1.2987496e-04 </wgt>
<wgt id='1019'> +1.3675067e-04 </wgt>
<wgt id='1020'> +1.2825335e-04 </wgt>
<wgt id='1021'> +1.4917281e-04 </wgt>
<wgt id='1022'> +1.2987501e-04 </wgt>
<wgt id='1023'> +1.2987496e-04 </wgt>
<wgt id='1024'> +1.3675067e-04 </wgt>
<wgt id='1025'> +1.2825335e-04 </wgt>
<wgt id='1026'> +1.4917281e-04 </wgt>
<wgt id='1027'> +1.2987501e-04 </wgt>
<wgt id='1028'> +1.2987496e-04 </wgt>
<wgt id='1029'> +1.3675067e-04 </wgt>
<wgt id='1030'> +1.2825335e-04 </wgt>
<wgt id='1031'> +1.6523607e-04 </wgt>
<wgt id='1032'> +1.4364872e-04 </wgt>
<wgt id='1033'> +1.4364866e-04 </wgt>
<wgt id='1034'> +1.5027394e-04 </wgt>
<wgt id='1035'> +1.4200280e-04 </wgt>
<wgt id='1036'> +1.6523607e-04 </wgt>
<wgt id='1037'> +1.4364872e-04 </wgt>
<wgt id='1038'> +1.4364866e-04 </wgt>
<wgt id='1039'> +1.5027394e-04 </wgt>
<wgt id='1040'> +1.4200280e-04 </wgt>
<wgt id='1041'> +1.6523607e-04 </wgt>
<wgt id='1042'> +1.4364872e-04 </wgt>
<wgt id='1043'> +1.4364866e-04 </wgt>
<wgt id='1044'> +1.5027394e-04 </wgt>
<wgt id='1045'> +1.4200280e-04 </wgt>
<wgt id='1046'> +1.5732536e-04 </wgt>
<wgt id='1047'> +1.5732536e-04 </wgt>
<wgt id='1048'> +0.0000000e+00 </wgt>
<wgt id='1049'> +0.0000000e+00 </wgt>
<wgt id='1050'> +0.0000000e+00 </wgt>
<wgt id='1051'> +0.0000000e+00 </wgt>
<wgt id='1052'> +0.0000000e+00 </wgt>
<wgt id='1053'> +0.0000000e+00 </wgt>
<wgt id='1054'> +0.0000000e+00 </wgt>
<wgt id='1055'> +0.0000000e+00 </wgt>
<wgt id='1056'> +0.0000000e+00 </wgt>
<wgt id='1057'> +0.0000000e+00 </wgt>
<wgt id='1058'> +0.0000000e+00 </wgt>
<wgt id='1059'> +0.0000000e+00 </wgt>
<wgt id='1060'> +0.0000000e+00 </wgt>
<wgt id='1061'> +0.0000000e+00 </wgt>
<wgt id='1062'> +0.0000000e+00 </wgt>
<wgt id='1063'> +0.0000000e+00 </wgt>
<wgt id='1064'> +0.0000000e+00 </wgt>
<wgt id='1065'> +0.0000000e+00 </wgt>
<wgt id='1066'> +0.0000000e+00 </wgt>
<wgt id='1067'> +0.0000000e+00 </wgt>
<wgt id='1068'> +0.0000000e+00 </wgt>
<wgt id='1069'> +0.0000000e+00 </wgt>
<wgt id='1070'> +0.0000000e+00 </wgt>
<wgt id='1071'> +0.0000000e+00 </wgt>
<wgt id='1072'> +0.0000000e+00 </wgt>
<wgt id='1073'> +0.0000000e+00 </wgt>
<wgt id='1074'> +0.0000000e+00 </wgt>
<wgt id='1075'> +0.0000000e+00 </wgt>
<wgt id='1076'> +0.0000000e+00 </wgt>
<wgt id='1077'> +0.0000000e+00 </wgt>
<wgt id='1078'> +0.0000000e+00 </wgt>
<wgt id='1079'> +0.0000000e+00 </wgt>
<wgt id='1080'> +0.0000000e+00 </wgt>
<wgt id='1081'> +0.0000000e+00 </wgt>
<wgt id='1082'> +0.0000000e+00 </wgt>
<wgt id='1083'> +0.0000000e+00 </wgt>
<wgt id='1084'> +0.0000000e+00 </wgt>
<wgt id='1085'> +0.0000000e+00 </wgt>
<wgt id='1086'> +0.0000000e+00 </wgt>
<wgt id='1087'> +0.0000000e+00 </wgt>
<wgt id='1088'> +0.0000000e+00 </wgt>
<wgt id='1089'> +0.0000000e+00 </wgt>
<wgt id='1090'> +0.0000000e+00 </wgt>
<wgt id='1091'> +0.0000000e+00 </wgt>
<wgt id='1092'> +0.0000000e+00 </wgt>
<wgt id='1093'> +0.0000000e+00 </wgt>
<wgt id='1094'> +0.0000000e+00 </wgt>
<wgt id='1095'> +0.0000000e+00 </wgt>
<wgt id='1096'> +0.0000000e+00 </wgt>
<wgt id='1097'> +0.0000000e+00 </wgt>
<wgt id='1098'> +0.0000000e+00 </wgt>
<wgt id='1099'> +0.0000000e+00 </wgt>
<wgt id='1100'> +0.0000000e+00 </wgt>
<wgt id='1101'> +0.0000000e+00 </wgt>
<wgt id='1102'> +0.0000000e+00 </wgt>
<wgt id='1103'> +0.0000000e+00 </wgt>
<wgt id='1104'> +0.0000000e+00 </wgt>
<wgt id='1105'> +0.0000000e+00 </wgt>
<wgt id='1106'> +0.0000000e+00 </wgt>
<wgt id='1107'> +0.0000000e+00 </wgt>
<wgt id='1108'> +0.0000000e+00 </wgt>
<wgt id='1109'> +0.0000000e+00 </wgt>
<wgt id='1110'> +0.0000000e+00 </wgt>
<wgt id='1111'> +0.0000000e+00 </wgt>
<wgt id='1112'> +0.0000000e+00 </wgt>
<wgt id='1113'> +0.0000000e+00 </wgt>
<wgt id='1114'> +0.0000000e+00 </wgt>
<wgt id='1115'> +0.0000000e+00 </wgt>
<wgt id='1116'> +0.0000000e+00 </wgt>
<wgt id='1117'> +0.0000000e+00 </wgt>
<wgt id='1118'> +0.0000000e+00 </wgt>
<wgt id='1119'> +0.0000000e+00 </wgt>
<wgt id='1120'> +0.0000000e+00 </wgt>
<wgt id='1121'> +0.0000000e+00 </wgt>
<wgt id='1122'> +0.0000000e+00 </wgt>
<wgt id='1123'> +0.0000000e+00 </wgt>
<wgt id='1124'> +0.0000000e+00 </wgt>
<wgt id='1125'> +0.0000000e+00 </wgt>
<wgt id='1126'> +0.0000000e+00 </wgt>
<wgt id='1127'> +0.0000000e+00 </wgt>
<wgt id='1128'> +0.0000000e+00 </wgt>
<wgt id='1129'> +0.0000000e+00 </wgt>
<wgt id='1130'> +0.0000000e+00 </wgt>
<wgt id='1131'> +0.0000000e+00 </wgt>
<wgt id='1132'> +0.0000000e+00 </wgt>
<wgt id='1133'> +0.0000000e+00 </wgt>
<wgt id='1134'> +0.0000000e+00 </wgt>
<wgt id='1135'> +0.0000000e+00 </wgt>
<wgt id='1136'> +0.0000000e+00 </wgt>
<wgt id='1137'> +0.0000000e+00 </wgt>
<wgt id='1138'> +0.0000000e+00 </wgt>
<wgt id='1139'> +0.0000000e+00 </wgt>
<wgt id='1140'> +0.0000000e+00 </wgt>
<wgt id='1141'> +0.0000000e+00 </wgt>
<wgt id='1142'> +0.0000000e+00 </wgt>
<wgt id='1143'> +0.0000000e+00 </wgt>
<wgt id='1144'> +0.0000000e+00 </wgt>
<wgt id='1145'> +0.0000000e+00 </wgt>
<wgt id='1146'> +0.0000000e+00 </wgt>
<wgt id='1147'> +0.0000000e+00 </wgt>
<wgt id='1148'> +0.0000000e+00 </wgt>
<wgt id='1149'> +0.0000000e+00 </wgt>
<wgt id='1150'> +0.0000000e+00 </wgt>
<wgt id='1151'> +0.0000000e+00 </wgt>
<wgt id='1152'> +0.0000000e+00 </wgt>
<wgt id='1153'> +0.0000000e+00 </wgt>
<wgt id='1154'> +0.0000000e+00 </wgt>
<wgt id='1155'> +0.0000000e+00 </wgt>
<wgt id='1156'> +0.0000000e+00 </wgt>
<wgt id='1157'> +0.0000000e+00 </wgt>
<wgt id='1158'> +0.0000000e+00 </wgt>
<wgt id='1159'> +0.0000000e+00 </wgt>
<wgt id='1160'> +0.0000000e+00 </wgt>
<wgt id='1161'> +0.0000000e+00 </wgt>
<wgt id='1162'> +0.0000000e+00 </wgt>
<wgt id='1163'> +0.0000000e+00 </wgt>
<wgt id='1164'> +0.0000000e+00 </wgt>
<wgt id='1165'> +0.0000000e+00 </wgt>
<wgt id='1166'> +0.0000000e+00 </wgt>
<wgt id='1167'> +0.0000000e+00 </wgt>
<wgt id='1168'> +0.0000000e+00 </wgt>
<wgt id='1169'> +0.0000000e+00 </wgt>
<wgt id='1170'> +0.0000000e+00 </wgt>
<wgt id='1171'> +0.0000000e+00 </wgt>
<wgt id='1172'> +0.0000000e+00 </wgt>
<wgt id='1173'> +0.0000000e+00 </wgt>
<wgt id='1174'> +0.0000000e+00 </wgt>
<wgt id='1175'> +0.0000000e+00 </wgt>
<wgt id='1176'> +0.0000000e+00 </wgt>
<wgt id='1177'> +0.0000000e+00 </wgt>
<wgt id='1178'> +0.0000000e+00 </wgt>
<wgt id='1179'> +0.0000000e+00 </wgt>
<wgt id='1180'> +0.0000000e+00 </wgt>
<wgt id='1181'> +0.0000000e+00 </wgt>
<wgt id='1182'> +0.0000000e+00 </wgt>
<wgt id='1183'> +0.0000000e+00 </wgt>
<wgt id='1184'> +0.0000000e+00 </wgt>
<wgt id='1185'> +0.0000000e+00 </wgt>
<wgt id='1186'> +0.0000000e+00 </wgt>
<wgt id='1187'> +0.0000000e+00 </wgt>
<wgt id='1188'> +0.0000000e+00 </wgt>
<wgt id='1189'> +0.0000000e+00 </wgt>
<wgt id='1190'> +0.0000000e+00 </wgt>
<wgt id='1191'> +0.0000000e+00 </wgt>
<wgt id='1192'> +0.0000000e+00 </wgt>
<wgt id='1193'> +0.0000000e+00 </wgt>
<wgt id='1194'> +0.0000000e+00 </wgt>
<wgt id='1195'> +0.0000000e+00 </wgt>
<wgt id='1196'> +0.0000000e+00 </wgt>
<wgt id='1197'> +0.0000000e+00 </wgt>
<wgt id='1198'> +0.0000000e+00 </wgt>
<wgt id='1199'> +0.0000000e+00 </wgt>
<wgt id='1200'> +0.0000000e+00 </wgt>
<wgt id='1201'> +0.0000000e+00 </wgt>
<wgt id='1202'> +0.0000000e+00 </wgt>
<wgt id='1203'> +0.0000000e+00 </wgt>
<wgt id='1204'> +0.0000000e+00 </wgt>
<wgt id='1205'> +0.0000000e+00 </wgt>
<wgt id='1206'> +0.0000000e+00 </wgt>
<wgt id='1207'> +0.0000000e+00 </wgt>
<wgt id='1208'> +0.0000000e+00 </wgt>
<wgt id='1209'> +0.0000000e+00 </wgt>
<wgt id='1210'> +0.0000000e+00 </wgt>
<wgt id='1211'> +0.0000000e+00 </wgt>
<wgt id='1212'> +0.0000000e+00 </wgt>
<wgt id='1213'> +0.0000000e+00 </wgt>
<wgt id='1214'> +0.0000000e+00 </wgt>
<wgt id='1215'> +0.0000000e+00 </wgt>
<wgt id='1216'> +0.0000000e+00 </wgt>
<wgt id='1217'> +0.0000000e+00 </wgt>
<wgt id='1218'> +0.0000000e+00 </wgt>
<wgt id='1219'> +0.0000000e+00 </wgt>
<wgt id='1220'> +0.0000000e+00 </wgt>
<wgt id='1221'> +0.0000000e+00 </wgt>
<wgt id='1222'> +0.0000000e+00 </wgt>
<wgt id='1223'> +0.0000000e+00 </wgt>
<wgt id='1224'> +0.0000000e+00 </wgt>
<wgt id='1225'> +0.0000000e+00 </wgt>
<wgt id='1226'> +0.0000000e+00 </wgt>
<wgt id='1227'> +0.0000000e+00 </wgt>
<wgt id='1228'> +0.0000000e+00 </wgt>
<wgt id='1229'> +0.0000000e+00 </wgt>
<wgt id='1230'> +0.0000000e+00 </wgt>
<wgt id='1231'> +0.0000000e+00 </wgt>
<wgt id='1232'> +0.0000000e+00 </wgt>
<wgt id='1233'> +0.0000000e+00 </wgt>
<wgt id='1234'> +0.0000000e+00 </wgt>
<wgt id='1235'> +0.0000000e+00 </wgt>
<wgt id='1236'> +0.0000000e+00 </wgt>
<wgt id='1237'> +0.0000000e+00 </wgt>
<wgt id='1238'> +0.0000000e+00 </wgt>
<wgt id='1239'> +0.0000000e+00 </wgt>
<wgt id='1240'> +0.0000000e+00 </wgt>
<wgt id='1241'> +0.0000000e+00 </wgt>
<wgt id='1242'> +0.0000000e+00 </wgt>
<wgt id='1243'> +0.0000000e+00 </wgt>
<wgt id='1244'> +0.0000000e+00 </wgt>
<wgt id='1245'> +0.0000000e+00 </wgt>
<wgt id='1246'> +0.0000000e+00 </wgt>
<wgt id='1247'> +0.0000000e+00 </wgt>
<wgt id='1248'> +0.0000000e+00 </wgt>
<wgt id='1249'> +0.0000000e+00 </wgt>
<wgt id='1250'> +0.0000000e+00 </wgt>
<wgt id='1251'> +0.0000000e+00 </wgt>
<wgt id='1252'> +0.0000000e+00 </wgt>
<wgt id='1253'> +0.0000000e+00 </wgt>
<wgt id='1254'> +0.0000000e+00 </wgt>
<wgt id='1255'> +0.0000000e+00 </wgt>
<wgt id='1256'> +0.0000000e+00 </wgt>
<wgt id='1257'> +0.0000000e+00 </wgt>
<wgt id='1258'> +0.0000000e+00 </wgt>
<wgt id='1259'> +0.0000000e+00 </wgt>
<wgt id='1260'> +0.0000000e+00 </wgt>
<wgt id='1261'> +0.0000000e+00 </wgt>
<wgt id='1262'> +0.0000000e+00 </wgt>
<wgt id='1263'> +0.0000000e+00 </wgt>
<wgt id='1264'> +0.0000000e+00 </wgt>
<wgt id='1265'> +0.0000000e+00 </wgt>
<wgt id='1266'> +0.0000000e+00 </wgt>
<wgt id='1267'> +0.0000000e+00 </wgt>
<wgt id='1268'> +0.0000000e+00 </wgt>
<wgt id='1269'> +0.0000000e+00 </wgt>
<wgt id='1270'> +0.0000000e+00 </wgt>
<wgt id='1271'> +0.0000000e+00 </wgt>
<wgt id='1272'> +0.0000000e+00 </wgt>
<wgt id='1273'> +0.0000000e+00 </wgt>
<wgt id='1274'> +0.0000000e+00 </wgt>
<wgt id='1275'> +0.0000000e+00 </wgt>
<wgt id='1276'> +0.0000000e+00 </wgt>
<wgt id='1277'> +0.0000000e+00 </wgt>
<wgt id='1278'> +0.0000000e+00 </wgt>
<wgt id='1279'> +0.0000000e+00 </wgt>
<wgt id='1280'> +0.0000000e+00 </wgt>
<wgt id='1281'> +0.0000000e+00 </wgt>
<wgt id='1282'> +0.0000000e+00 </wgt>
<wgt id='1283'> +0.0000000e+00 </wgt>
<wgt id='1284'> +0.0000000e+00 </wgt>
<wgt id='1285'> +0.0000000e+00 </wgt>
<wgt id='1286'> +0.0000000e+00 </wgt>
<wgt id='1287'> +0.0000000e+00 </wgt>
<wgt id='1288'> +0.0000000e+00 </wgt>
<wgt id='1289'> +0.0000000e+00 </wgt>
<wgt id='1290'> +0.0000000e+00 </wgt>
<wgt id='1291'> +0.0000000e+00 </wgt>
<wgt id='1292'> +0.0000000e+00 </wgt>
<wgt id='1293'> +0.0000000e+00 </wgt>
<wgt id='1294'> +0.0000000e+00 </wgt>
<wgt id='1295'> +0.0000000e+00 </wgt>
<wgt id='1296'> +0.0000000e+00 </wgt>
<wgt id='1297'> +0.0000000e+00 </wgt>
<wgt id='1298'> +0.0000000e+00 </wgt>
<wgt id='1299'> +0.0000000e+00 </wgt>
<wgt id='1300'> +0.0000000e+00 </wgt>
<wgt id='1301'> +0.0000000e+00 </wgt>
<wgt id='1302'> +0.0000000e+00 </wgt>
<wgt id='1303'> +0.0000000e+00 </wgt>
<wgt id='1304'> +0.0000000e+00 </wgt>
<wgt id='1305'> +0.0000000e+00 </wgt>
<wgt id='1306'> +0.0000000e+00 </wgt>
<wgt id='1307'> +0.0000000e+00 </wgt>
<wgt id='1308'> +0.0000000e+00 </wgt>
<wgt id='1309'> +0.0000000e+00 </wgt>
<wgt id='1310'> +0.0000000e+00 </wgt>
<wgt id='1311'> +0.0000000e+00 </wgt>
<wgt id='1312'> +0.0000000e+00 </wgt>
<wgt id='1313'> +0.0000000e+00 </wgt>
<wgt id='1314'> +0.0000000e+00 </wgt>
<wgt id='1315'> +0.0000000e+00 </wgt>
<wgt id='1316'> +0.0000000e+00 </wgt>
<wgt id='1317'> +0.0000000e+00 </wgt>
<wgt id='1318'> +0.0000000e+00 </wgt>
<wgt id='1319'> +0.0000000e+00 </wgt>
<wgt id='1320'> +0.0000000e+00 </wgt>
<wgt id='1321'> +0.0000000e+00 </wgt>
<wgt id='1322'> +0.0000000e+00 </wgt>
<wgt id='1323'> +0.0000000e+00 </wgt>
<wgt id='1324'> +0.0000000e+00 </wgt>
<wgt id='1325'> +0.0000000e+00 </wgt>
<wgt id='1326'> +0.0000000e+00 </wgt>
<wgt id='1327'> +0.0000000e+00 </wgt>
<wgt id='1328'> +0.0000000e+00 </wgt>
<wgt id='1329'> +0.0000000e+00 </wgt>
<wgt id='1330'> +0.0000000e+00 </wgt>
<wgt id='1331'> +0.0000000e+00 </wgt>
<wgt id='1332'> +0.0000000e+00 </wgt>
<wgt id='1333'> +0.0000000e+00 </wgt>
<wgt id='1334'> +0.0000000e+00 </wgt>
<wgt id='1335'> +0.0000000e+00 </wgt>
<wgt id='1336'> +0.0000000e+00 </wgt>
<wgt id='1337'> +0.0000000e+00 </wgt>
<wgt id='1338'> +0.0000000e+00 </wgt>
<wgt id='1339'> +0.0000000e+00 </wgt>
<wgt id='1340'> +0.0000000e+00 </wgt>
<wgt id='1341'> +0.0000000e+00 </wgt>
<wgt id='1342'> +0.0000000e+00 </wgt>
<wgt id='1343'> +0.0000000e+00 </wgt>
<wgt id='1344'> +0.0000000e+00 </wgt>
<wgt id='1345'> +0.0000000e+00 </wgt>
<wgt id='1346'> +0.0000000e+00 </wgt>
<wgt id='1347'> +0.0000000e+00 </wgt>
<wgt id='1348'> +0.0000000e+00 </wgt>
<wgt id='1349'> +0.0000000e+00 </wgt>
<wgt id='1350'> +0.0000000e+00 </wgt>
<wgt id='1351'> +0.0000000e+00 </wgt>
<wgt id='1352'> +0.0000000e+00 </wgt>
<wgt id='1353'> +0.0000000e+00 </wgt>
<wgt id='1354'> +0.0000000e+00 </wgt>
<wgt id='1355'> +0.0000000e+00 </wgt>
<wgt id='1356'> +0.0000000e+00 </wgt>
<wgt id='1357'> +0.0000000e+00 </wgt>
<wgt id='1358'> +0.0000000e+00 </wgt>
<wgt id='1359'> +0.0000000e+00 </wgt>
<wgt id='1360'> +0.0000000e+00 </wgt>
<wgt id='1361'> +0.0000000e+00 </wgt>
<wgt id='1362'> +0.0000000e+00 </wgt>
<wgt id='1363'> +0.0000000e+00 </wgt>
<wgt id='1364'> +0.0000000e+00 </wgt>
<wgt id='1365'> +0.0000000e+00 </wgt>
<wgt id='1366'> +0.0000000e+00 </wgt>
<wgt id='1367'> +0.0000000e+00 </wgt>
<wgt id='1368'> +0.0000000e+00 </wgt>
<wgt id='1369'> +0.0000000e+00 </wgt>
<wgt id='1370'> +0.0000000e+00 </wgt>
<wgt id='1371'> +0.0000000e+00 </wgt>
<wgt id='1372'> +0.0000000e+00 </wgt>
<wgt id='1373'> +0.0000000e+00 </wgt>
<wgt id='1374'> +0.0000000e+00 </wgt>
<wgt id='1375'> +0.0000000e+00 </wgt>
<wgt id='1376'> +0.0000000e+00 </wgt>
<wgt id='1377'> +0.0000000e+00 </wgt>
<wgt id='1378'> +0.0000000e+00 </wgt>
<wgt id='1379'> +0.0000000e+00 </wgt>
<wgt id='1380'> +0.0000000e+00 </wgt>
<wgt id='1381'> +0.0000000e+00 </wgt>
<wgt id='1382'> +0.0000000e+00 </wgt>
<wgt id='1383'> +0.0000000e+00 </wgt>
<wgt id='1384'> +0.0000000e+00 </wgt>
<wgt id='1385'> +0.0000000e+00 </wgt>
<wgt id='1386'> +0.0000000e+00 </wgt>
<wgt id='1387'> +0.0000000e+00 </wgt>
<wgt id='1388'> +0.0000000e+00 </wgt>
<wgt id='1389'> +0.0000000e+00 </wgt>
<wgt id='1390'> +0.0000000e+00 </wgt>
<wgt id='1391'> +0.0000000e+00 </wgt>
<wgt id='1392'> +0.0000000e+00 </wgt>
<wgt id='1393'> +0.0000000e+00 </wgt>
<wgt id='1394'> +0.0000000e+00 </wgt>
<wgt id='1395'> +0.0000000e+00 </wgt>
<wgt id='1396'> +0.0000000e+00 </wgt>
<wgt id='1397'> +0.0000000e+00 </wgt>
<wgt id='1398'> +0.0000000e+00 </wgt>
<wgt id='1399'> +0.0000000e+00 </wgt>
<wgt id='1400'> +0.0000000e+00 </wgt>
<wgt id='1401'> +0.0000000e+00 </wgt>
<wgt id='1402'> +0.0000000e+00 </wgt>
<wgt id='1403'> +0.0000000e+00 </wgt>
<wgt id='1404'> +0.0000000e+00 </wgt>
<wgt id='1405'> +0.0000000e+00 </wgt>
<wgt id='1406'> +0.0000000e+00 </wgt>
<wgt id='1407'> +0.0000000e+00 </wgt>
<wgt id='1408'> +0.0000000e+00 </wgt>
<wgt id='1409'> +0.0000000e+00 </wgt>
<wgt id='1410'> +0.0000000e+00 </wgt>
<wgt id='1411'> +0.0000000e+00 </wgt>
<wgt id='1412'> +0.0000000e+00 </wgt>
<wgt id='1413'> +0.0000000e+00 </wgt>
<wgt id='1414'> +0.0000000e+00 </wgt>
<wgt id='1415'> +0.0000000e+00 </wgt>
<wgt id='1416'> +0.0000000e+00 </wgt>
<wgt id='1417'> +0.0000000e+00 </wgt>
<wgt id='1418'> +0.0000000e+00 </wgt>
<wgt id='1419'> +0.0000000e+00 </wgt>
<wgt id='1420'> +0.0000000e+00 </wgt>
<wgt id='1421'> +0.0000000e+00 </wgt>
<wgt id='1422'> +0.0000000e+00 </wgt>
<wgt id='1423'> +0.0000000e+00 </wgt>
<wgt id='1424'> +0.0000000e+00 </wgt>
<wgt id='1425'> +0.0000000e+00 </wgt>
<wgt id='1426'> +0.0000000e+00 </wgt>
<wgt id='1427'> +0.0000000e+00 </wgt>
<wgt id='1428'> +0.0000000e+00 </wgt>
<wgt id='1429'> +0.0000000e+00 </wgt>
<wgt id='1430'> +0.0000000e+00 </wgt>
<wgt id='1431'> +0.0000000e+00 </wgt>
<wgt id='1432'> +0.0000000e+00 </wgt>
<wgt id='1433'> +0.0000000e+00 </wgt>
<wgt id='1434'> +0.0000000e+00 </wgt>
<wgt id='1435'> +0.0000000e+00 </wgt>
<wgt id='1436'> +0.0000000e+00 </wgt>
<wgt id='1437'> +0.0000000e+00 </wgt>
<wgt id='1438'> +0.0000000e+00 </wgt>
<wgt id='1439'> +0.0000000e+00 </wgt>
<wgt id='1440'> +0.0000000e+00 </wgt>
<wgt id='1441'> +0.0000000e+00 </wgt>
<wgt id='1442'> +0.0000000e+00 </wgt>
<wgt id='1443'> +0.0000000e+00 </wgt>
<wgt id='1444'> +0.0000000e+00 </wgt>
<wgt id='1445'> +0.0000000e+00 </wgt>
<wgt id='1446'> +0.0000000e+00 </wgt>
<wgt id='1447'> +0.0000000e+00 </wgt>
<wgt id='1448'> +0.0000000e+00 </wgt>
<wgt id='1449'> +0.0000000e+00 </wgt>
<wgt id='1450'> +0.0000000e+00 </wgt>
<wgt id='1451'> +0.0000000e+00 </wgt>
<wgt id='1452'> +0.0000000e+00 </wgt>
<wgt id='1453'> +0.0000000e+00 </wgt>
<wgt id='1454'> +0.0000000e+00 </wgt>
<wgt id='1455'> +0.0000000e+00 </wgt>
<wgt id='1456'> +0.0000000e+00 </wgt>
<wgt id='1457'> +0.0000000e+00 </wgt>
<wgt id='1458'> +0.0000000e+00 </wgt>
<wgt id='1459'> +0.0000000e+00 </wgt>
<wgt id='1460'> +0.0000000e+00 </wgt>
<wgt id='1461'> +0.0000000e+00 </wgt>
<wgt id='1462'> +0.0000000e+00 </wgt>
<wgt id='1463'> +0.0000000e+00 </wgt>
<wgt id='1464'> +0.0000000e+00 </wgt>
<wgt id='1465'> +0.0000000e+00 </wgt>
<wgt id='1466'> +0.0000000e+00 </wgt>
<wgt id='1467'> +0.0000000e+00 </wgt>
<wgt id='1468'> +0.0000000e+00 </wgt>
<wgt id='1469'> +0.0000000e+00 </wgt>
<wgt id='1470'> +0.0000000e+00 </wgt>
<wgt id='1471'> +0.0000000e+00 </wgt>
<wgt id='1472'> +0.0000000e+00 </wgt>
<wgt id='1473'> +0.0000000e+00 </wgt>
<wgt id='1474'> +0.0000000e+00 </wgt>
<wgt id='1475'> +0.0000000e+00 </wgt>
<wgt id='1476'> +0.0000000e+00 </wgt>
<wgt id='1477'> +0.0000000e+00 </wgt>
<wgt id='1478'> +0.0000000e+00 </wgt>
<wgt id='1479'> +0.0000000e+00 </wgt>
<wgt id='1480'> +0.0000000e+00 </wgt>
<wgt id='1481'> +0.0000000e+00 </wgt>
<wgt id='1482'> +0.0000000e+00 </wgt>
<wgt id='1483'> +0.0000000e+00 </wgt>
<wgt id='1484'> +0.0000000e+00 </wgt>
<wgt id='1485'> +0.0000000e+00 </wgt>
<wgt id='1486'> +0.0000000e+00 </wgt>
<wgt id='1487'> +0.0000000e+00 </wgt>
<wgt id='1488'> +0.0000000e+00 </wgt>
<wgt id='1489'> +0.0000000e+00 </wgt>
<wgt id='1490'> +0.0000000e+00 </wgt>
<wgt id='1491'> +0.0000000e+00 </wgt>
<wgt id='1492'> +0.0000000e+00 </wgt>
<wgt id='1493'> +0.0000000e+00 </wgt>
<wgt id='1494'> +0.0000000e+00 </wgt>
<wgt id='1495'> +0.0000000e+00 </wgt>
<wgt id='1496'> +0.0000000e+00 </wgt>
<wgt id='1497'> +0.0000000e+00 </wgt>
<wgt id='1498'> +0.0000000e+00 </wgt>
<wgt id='1499'> +0.0000000e+00 </wgt>
<wgt id='1500'> +0.0000000e+00 </wgt>
<wgt id='1501'> +0.0000000e+00 </wgt>
<wgt id='1502'> +0.0000000e+00 </wgt>
<wgt id='1503'> +0.0000000e+00 </wgt>
<wgt id='1504'> +0.0000000e+00 </wgt>
<wgt id='1505'> +0.0000000e+00 </wgt>
<wgt id='1506'> +0.0000000e+00 </wgt>
<wgt id='1507'> +0.0000000e+00 </wgt>
<wgt id='1508'> +0.0000000e+00 </wgt>
<wgt id='1509'> +0.0000000e+00 </wgt>
<wgt id='1510'> +0.0000000e+00 </wgt>
<wgt id='1511'> +0.0000000e+00 </wgt>
<wgt id='1512'> +0.0000000e+00 </wgt>
<wgt id='1513'> +0.0000000e+00 </wgt>
<wgt id='1514'> +0.0000000e+00 </wgt>
<wgt id='1515'> +0.0000000e+00 </wgt>
<wgt id='1516'> +0.0000000e+00 </wgt>
<wgt id='1517'> +0.0000000e+00 </wgt>
<wgt id='1518'> +0.0000000e+00 </wgt>
<wgt id='1519'> +0.0000000e+00 </wgt>
<wgt id='1520'> +0.0000000e+00 </wgt>
<wgt id='1521'> +0.0000000e+00 </wgt>
<wgt id='1522'> +0.0000000e+00 </wgt>
<wgt id='1523'> +0.0000000e+00 </wgt>
<wgt id='1524'> +0.0000000e+00 </wgt>
<wgt id='1525'> +0.0000000e+00 </wgt>
<wgt id='1526'> +0.0000000e+00 </wgt>
<wgt id='1527'> +0.0000000e+00 </wgt>
<wgt id='1528'> +0.0000000e+00 </wgt>
<wgt id='1529'> +0.0000000e+00 </wgt>
<wgt id='1530'> +0.0000000e+00 </wgt>
<wgt id='1531'> +0.0000000e+00 </wgt>
<wgt id='1532'> +0.0000000e+00 </wgt>
<wgt id='1533'> +0.0000000e+00 </wgt>
<wgt id='1534'> +0.0000000e+00 </wgt>
<wgt id='1535'> +0.0000000e+00 </wgt>
<wgt id='1536'> +0.0000000e+00 </wgt>
<wgt id='1537'> +0.0000000e+00 </wgt>
<wgt id='1538'> +0.0000000e+00 </wgt>
<wgt id='1539'> +0.0000000e+00 </wgt>
<wgt id='1540'> +0.0000000e+00 </wgt>
<wgt id='1541'> +0.0000000e+00 </wgt>
<wgt id='1542'> +0.0000000e+00 </wgt>
<wgt id='1543'> +0.0000000e+00 </wgt>
<wgt id='1544'> +0.0000000e+00 </wgt>
<wgt id='1545'> +0.0000000e+00 </wgt>
<wgt id='1546'> +0.0000000e+00 </wgt>
<wgt id='1547'> +0.0000000e+00 </wgt>
<wgt id='1548'> +0.0000000e+00 </wgt>
<wgt id='1549'> +0.0000000e+00 </wgt>
<wgt id='1550'> +0.0000000e+00 </wgt>
<wgt id='1551'> +0.0000000e+00 </wgt>
<wgt id='1552'> +0.0000000e+00 </wgt>
<wgt id='1553'> +0.0000000e+00 </wgt>
<wgt id='1554'> +0.0000000e+00 </wgt>
<wgt id='1555'> +0.0000000e+00 </wgt>
<wgt id='1556'> +0.0000000e+00 </wgt>
<wgt id='1557'> +0.0000000e+00 </wgt>
<wgt id='1558'> +0.0000000e+00 </wgt>
<wgt id='1559'> +0.0000000e+00 </wgt>
<wgt id='1560'> +0.0000000e+00 </wgt>
<wgt id='1561'> +0.0000000e+00 </wgt>
<wgt id='1562'> +0.0000000e+00 </wgt>
<wgt id='1563'> +0.0000000e+00 </wgt>
<wgt id='1564'> +0.0000000e+00 </wgt>
<wgt id='1565'> +0.0000000e+00 </wgt>
<wgt id='1566'> +0.0000000e+00 </wgt>
<wgt id='1567'> +0.0000000e+00 </wgt>
<wgt id='1568'> +0.0000000e+00 </wgt>
<wgt id='1569'> +0.0000000e+00 </wgt>
<wgt id='1570'> +0.0000000e+00 </wgt>
<wgt id='1571'> +0.0000000e+00 </wgt>
<wgt id='1572'> +0.0000000e+00 </wgt>
<wgt id='1573'> +0.0000000e+00 </wgt>
<wgt id='1574'> +0.0000000e+00 </wgt>
<wgt id='1575'> +0.0000000e+00 </wgt>
<wgt id='1576'> +0.0000000e+00 </wgt>
<wgt id='1577'> +0.0000000e+00 </wgt>
<wgt id='1578'> +0.0000000e+00 </wgt>
<wgt id='1579'> +0.0000000e+00 </wgt>
<wgt id='1580'> +0.0000000e+00 </wgt>
<wgt id='1581'> +0.0000000e+00 </wgt>
<wgt id='1582'> +0.0000000e+00 </wgt>
<wgt id='1583'> +0.0000000e+00 </wgt>
<wgt id='1584'> +0.0000000e+00 </wgt>
<wgt id='1585'> +0.0000000e+00 </wgt>
<wgt id='1586'> +0.0000000e+00 </wgt>
<wgt id='1587'> +0.0000000e+00 </wgt>
<wgt id='1588'> +0.0000000e+00 </wgt>
<wgt id='1589'> +0.0000000e+00 </wgt>
<wgt id='1590'> +0.0000000e+00 </wgt>
<wgt id='1591'> +0.0000000e+00 </wgt>
<wgt id='1592'> +0.0000000e+00 </wgt>
<wgt id='1593'> +0.0000000e+00 </wgt>
<wgt id='1594'> +0.0000000e+00 </wgt>
<wgt id='1595'> +0.0000000e+00 </wgt>
<wgt id='1596'> +0.0000000e+00 </wgt>
<wgt id='1597'> +0.0000000e+00 </wgt>
<wgt id='1598'> +0.0000000e+00 </wgt>
<wgt id='1599'> +0.0000000e+00 </wgt>
<wgt id='1600'> +0.0000000e+00 </wgt>
<wgt id='1601'> +0.0000000e+00 </wgt>
<wgt id='1602'> +0.0000000e+00 </wgt>
<wgt id='1603'> +0.0000000e+00 </wgt>
<wgt id='1604'> +0.0000000e+00 </wgt>
<wgt id='1605'> +0.0000000e+00 </wgt>
<wgt id='1606'> +0.0000000e+00 </wgt>
<wgt id='1607'> +0.0000000e+00 </wgt>
<wgt id='1608'> +0.0000000e+00 </wgt>
<wgt id='1609'> +0.0000000e+00 </wgt>
<wgt id='1610'> +0.0000000e+00 </wgt>
<wgt id='1611'> +0.0000000e+00 </wgt>
<wgt id='1612'> +1.5768128e-04 </wgt>
<wgt id='1613'> +1.5734028e-04 </wgt>
<wgt id='1614'> +1.5812468e-04 </wgt>
<wgt id='1615'> +1.5797162e-04 </wgt>
<wgt id='1616'> +1.5774802e-04 </wgt>
<wgt id='1617'> +1.5780531e-04 </wgt>
<wgt id='1618'> +1.5789009e-04 </wgt>
<wgt id='1619'> +1.5745803e-04 </wgt>
<wgt id='1620'> +1.5800575e-04 </wgt>
<wgt id='1621'> +1.5789704e-04 </wgt>
<wgt id='1622'> +1.5786407e-04 </wgt>
<wgt id='1623'> +1.5724391e-04 </wgt>
<wgt id='1624'> +1.5709746e-04 </wgt>
<wgt id='1625'> +1.5709378e-04 </wgt>
<wgt id='1626'> +1.5784346e-04 </wgt>
<wgt id='1627'> +1.5702499e-04 </wgt>
<wgt id='1628'> +1.5789950e-04 </wgt>
<wgt id='1629'> +1.5777749e-04 </wgt>
<wgt id='1630'> +1.5729789e-04 </wgt>
<wgt id='1631'> +1.5790199e-04 </wgt>
<wgt id='1632'> +1.5713056e-04 </wgt>
<wgt id='1633'> +1.5771896e-04 </wgt>
<wgt id='1634'> +1.5751606e-04 </wgt>
<wgt id='1635'> +1.5735700e-04 </wgt>
<wgt id='1636'> +1.5757344e-04 </wgt>
<wgt id='1637'> +1.5758163e-04 </wgt>
<wgt id='1638'> +1.5760666e-04 </wgt>
<wgt id='1639'> +1.5799546e-04 </wgt>
<wgt id='1640'> +1.5768853e-04 </wgt>
<wgt id='1641'> +1.5697027e-04 </wgt>
<wgt id='1642'> +1.5737432e-04 </wgt>
<wgt id='1643'> +1.5745631e-04 </wgt>
<wgt id='1644'> +1.5727708e-04 </wgt>
<wgt id='1645'> +1.5794091e-04 </wgt>
<wgt id='1646'> +1.5793206e-04 </wgt>
<wgt id='1647'> +1.5744934e-04 </wgt>
<wgt id='1648'> +1.5752317e-04 </wgt>
<wgt id='1649'> +1.5820397e-04 </wgt>
<wgt id='1650'> +1.5730124e-04 </wgt>
<wgt id='1651'> +1.5751103e-04 </wgt>
<wgt id='1652'> +1.5777450e-04 </wgt>
<wgt id='1653'> +1.5752775e-04 </wgt>
<wgt id='1654'> +1.5727383e-04 </wgt>
<wgt id='1655'> +1.5796532e-04 </wgt>
<wgt id='1656'> +1.5770428e-04 </wgt>
<wgt id='1657'> +1.5787870e-04 </wgt>
<wgt id='1658'> +1.5798418e-04 </wgt>
<wgt id='1659'> +1.5820066e-04 </wgt>
<wgt id='1660'> +1.5779482e-04 </wgt>
<wgt id='1661'> +1.5775059e-04 </wgt>
<wgt id='1662'> +1.5885136e-04 </wgt>
<wgt id='1663'> +1.5880009e-04 </wgt>
<wgt id='1664'> +1.5757948e-04 </wgt>
<wgt id='1665'> +1.5799749e-04 </wgt>
<wgt id='1666'> +1.5845020e-04 </wgt>
<wgt id='1667'> +1.5787944e-04 </wgt>
<wgt id='1668'> +1.5765863e-04 </wgt>
<wgt id='1669'> +1.5790309e-04 </wgt>
<wgt id='1670'> +1.5887877e-04 </wgt>
<wgt id='1671'> +1.5837938e-04 </wgt>
<wgt id='1672'> +1.5775369e-04 </wgt>
<wgt id='1673'> +1.5801817e-04 </wgt>
<wgt id='1674'> +1.5756340e-04 </wgt>
<wgt id='1675'> +1.5785246e-04 </wgt>
<wgt id='1676'> +1.5810641e-04 </wgt>
<wgt id='1677'> +1.5801906e-04 </wgt>
<wgt id='1678'> +1.5746303e-04 </wgt>
<wgt id='1679'> +1.5801808e-04 </wgt>
<wgt id='1680'> +1.5743726e-04 </wgt>
<wgt id='1681'> +1.5784888e-04 </wgt>
<wgt id='1682'> +1.5731608e-04 </wgt>
<wgt id='1683'> +1.5780429e-04 </wgt>
<wgt id='1684'> +1.5742357e-04 </wgt>
<wgt id='1685'> +1.5734995e-04 </wgt>
<wgt id='1686'> +1.5776431e-04 </wgt>
<wgt id='1687'> +1.5769551e-04 </wgt>
<wgt id='1688'> +1.5801382e-04 </wgt>
<wgt id='1689'> +1.5749797e-04 </wgt>
<wgt id='1690'> +1.5802423e-04 </wgt>
<wgt id='1691'> +1.5794004e-04 </wgt>
<wgt id='1692'> +1.5785880e-04 </wgt>
<wgt id='1693'> +1.5729734e-04 </wgt>
<wgt id='1694'> +1.5759742e-04 </wgt>
<wgt id='1695'> +1.5791972e-04 </wgt>
<wgt id='1696'> +1.5801408e-04 </wgt>
<wgt id='1697'> +1.5765592e-04 </wgt>
<wgt id='1698'> +1.5747085e-04 </wgt>
<wgt id='1699'> +1.5797980e-04 </wgt>
<wgt id='1700'> +1.5729645e-04 </wgt>
<wgt id='1701'> +1.5778878e-04 </wgt>
<wgt id='1702'> +1.5762850e-04 </wgt>
<wgt id='1703'> +1.5775443e-04 </wgt>
<wgt id='1704'> +1.5750648e-04 </wgt>
<wgt id='1705'> +1.5793850e-04 </wgt>
<wgt id='1706'> +1.5790098e-04 </wgt>
<wgt id='1707'> +1.5765056e-04 </wgt>
<wgt id='1708'> +1.5771354e-04 </wgt>
<wgt id='1709'> +1.5803826e-04 </wgt>
<wgt id='1710'> +1.5768031e-04 </wgt>
<wgt id='1711'> +1.5780644e-04 </wgt>
<wgt id='1712'> +1.5775877e-04 </wgt>
<wgt id='1713'> +1.5558897e-04 </wgt>
<wgt id='1714'> +1.6008926e-04 </wgt>
<wgt id='1715'> +0.0000000e+00 </wgt>
<wgt id='1716'> +0.0000000e+00 </wgt>
<wgt id='1717'> +0.0000000e+00 </wgt>
<wgt id='1718'> +0.0000000e+00 </wgt>
<wgt id='1719'> +0.0000000e+00 </wgt>
<wgt id='1720'> +0.0000000e+00 </wgt>
<wgt id='1721'> +0.0000000e+00 </wgt>
<wgt id='1722'> +0.0000000e+00 </wgt>
<wgt id='1723'> +0.0000000e+00 </wgt>
<wgt id='1724'> +0.0000000e+00 </wgt>
<wgt id='1725'> +0.0000000e+00 </wgt>
<wgt id='1726'> +0.0000000e+00 </wgt>
<wgt id='1727'> +0.0000000e+00 </wgt>
<wgt id='1728'> +0.0000000e+00 </wgt>
<wgt id='1729'> +0.0000000e+00 </wgt>
<wgt id='1730'> +0.0000000e+00 </wgt>
<wgt id='1731'> +0.0000000e+00 </wgt>
<wgt id='1732'> +0.0000000e+00 </wgt>
<wgt id='1733'> +0.0000000e+00 </wgt>
<wgt id='1734'> +0.0000000e+00 </wgt>
<wgt id='1735'> +0.0000000e+00 </wgt>
<wgt id='1736'> +0.0000000e+00 </wgt>
<wgt id='1737'> +0.0000000e+00 </wgt>
<wgt id='1738'> +0.0000000e+00 </wgt>
<wgt id='1739'> +0.0000000e+00 </wgt>
<wgt id='1740'> +0.0000000e+00 </wgt>
<wgt id='1741'> +0.0000000e+00 </wgt>
<wgt id='1742'> +0.0000000e+00 </wgt>
<wgt id='1743'> +0.0000000e+00 </wgt>
<wgt id='1744'> +0.0000000e+00 </wgt>
<wgt id='1745'> +0.0000000e+00 </wgt>
<wgt id='1746'> +0.0000000e+00 </wgt>
<wgt id='1747'> +0.0000000e+00 </wgt>
<wgt id='1748'> +0.0000000e+00 </wgt>
<wgt id='1749'> +0.0000000e+00 </wgt>
<wgt id='1750'> +0.0000000e+00 </wgt>
<wgt id='1751'> +0.0000000e+00 </wgt>
<wgt id='1752'> +0.0000000e+00 </wgt>
<wgt id='1753'> +0.0000000e+00 </wgt>
<wgt id='1754'> +0.0000000e+00 </wgt>
<wgt id='1755'> +0.0000000e+00 </wgt>
<wgt id='1756'> +0.0000000e+00 </wgt>
<wgt id='1757'> +0.0000000e+00 </wgt>
<wgt id='1758'> +0.0000000e+00 </wgt>
<wgt id='1759'> +0.0000000e+00 </wgt>
<wgt id='1760'> +0.0000000e+00 </wgt>
<wgt id='1761'> +0.0000000e+00 </wgt>
<wgt id='1762'> +0.0000000e+00 </wgt>
<wgt id='1763'> +0.0000000e+00 </wgt>
<wgt id='1764'> +0.0000000e+00 </wgt>
<wgt id='1765'> +0.0000000e+00 </wgt>
<wgt id='1766'> +0.0000000e+00 </wgt>
<wgt id='1767'> +0.0000000e+00 </wgt>
<wgt id='1768'> +0.0000000e+00 </wgt>
<wgt id='1769'> +0.0000000e+00 </wgt>
<wgt id='1770'> +0.0000000e+00 </wgt>
<wgt id='1771'> +0.0000000e+00 </wgt>
<wgt id='1772'> +0.0000000e+00 </wgt>
<wgt id='1773'> +0.0000000e+00 </wgt>
<wgt id='1774'> +0.0000000e+00 </wgt>
<wgt id='1775'> +0.0000000e+00 </wgt>
<wgt id='1776'> +0.0000000e+00 </wgt>
<wgt id='1777'> +0.0000000e+00 </wgt>
<wgt id='1778'> +0.0000000e+00 </wgt>
<wgt id='1779'> +0.0000000e+00 </wgt>
<wgt id='1780'> +0.0000000e+00 </wgt>
<wgt id='1781'> +0.0000000e+00 </wgt>
<wgt id='1782'> +0.0000000e+00 </wgt>
<wgt id='1783'> +0.0000000e+00 </wgt>
<wgt id='1784'> +0.0000000e+00 </wgt>
<wgt id='1785'> +0.0000000e+00 </wgt>
<wgt id='1786'> +0.0000000e+00 </wgt>
<wgt id='1787'> +0.0000000e+00 </wgt>
<wgt id='1788'> +0.0000000e+00 </wgt>
<wgt id='1789'> +0.0000000e+00 </wgt>
<wgt id='1790'> +0.0000000e+00 </wgt>
<wgt id='1791'> +0.0000000e+00 </wgt>
<wgt id='1792'> +0.0000000e+00 </wgt>
<wgt id='1793'> +0.0000000e+00 </wgt>
<wgt id='1794'> +0.0000000e+00 </wgt>
<wgt id='1795'> +0.0000000e+00 </wgt>
<wgt id='1796'> +0.0000000e+00 </wgt>
<wgt id='1797'> +0.0000000e+00 </wgt>
<wgt id='1798'> +0.0000000e+00 </wgt>
<wgt id='1799'> +0.0000000e+00 </wgt>
<wgt id='1800'> +0.0000000e+00 </wgt>
<wgt id='1801'> +0.0000000e+00 </wgt>
<wgt id='1802'> +0.0000000e+00 </wgt>
<wgt id='1803'> +0.0000000e+00 </wgt>
<wgt id='1804'> +0.0000000e+00 </wgt>
<wgt id='1805'> +0.0000000e+00 </wgt>
<wgt id='1806'> +0.0000000e+00 </wgt>
<wgt id='1807'> +0.0000000e+00 </wgt>
<wgt id='1808'> +0.0000000e+00 </wgt>
<wgt id='1809'> +0.0000000e+00 </wgt>
<wgt id='1810'> +0.0000000e+00 </wgt>
<wgt id='1811'> +0.0000000e+00 </wgt>
<wgt id='1812'> +0.0000000e+00 </wgt>
<wgt id='1813'> +0.0000000e+00 </wgt>
<wgt id='1814'> +0.0000000e+00 </wgt>
<wgt id='1815'> +0.0000000e+00 </wgt>
<wgt id='1816'> +0.0000000e+00 </wgt>
<wgt id='1817'> +0.0000000e+00 </wgt>
<wgt id='1818'> +0.0000000e+00 </wgt>
<wgt id='1819'> +0.0000000e+00 </wgt>
<wgt id='1820'> +0.0000000e+00 </wgt>
<wgt id='1821'> +0.0000000e+00 </wgt>
<wgt id='1822'> +0.0000000e+00 </wgt>
<wgt id='1823'> +0.0000000e+00 </wgt>
<wgt id='1824'> +0.0000000e+00 </wgt>
<wgt id='1825'> +0.0000000e+00 </wgt>
<wgt id='1826'> +0.0000000e+00 </wgt>
<wgt id='1827'> +0.0000000e+00 </wgt>
<wgt id='1828'> +0.0000000e+00 </wgt>
<wgt id='1829'> +0.0000000e+00 </wgt>
<wgt id='1830'> +0.0000000e+00 </wgt>
<wgt id='1831'> +0.0000000e+00 </wgt>
<wgt id='1832'> +0.0000000e+00 </wgt>
<wgt id='1833'> +0.0000000e+00 </wgt>
<wgt id='1834'> +0.0000000e+00 </wgt>
<wgt id='1835'> +0.0000000e+00 </wgt>
<wgt id='1836'> +0.0000000e+00 </wgt>
<wgt id='1837'> +0.0000000e+00 </wgt>
<wgt id='1838'> +0.0000000e+00 </wgt>
<wgt id='1839'> +0.0000000e+00 </wgt>
<wgt id='1840'> +0.0000000e+00 </wgt>
<wgt id='1841'> +0.0000000e+00 </wgt>
<wgt id='1842'> +0.0000000e+00 </wgt>
<wgt id='1843'> +0.0000000e+00 </wgt>
<wgt id='1844'> +0.0000000e+00 </wgt>
<wgt id='1845'> +0.0000000e+00 </wgt>
<wgt id='1846'> +0.0000000e+00 </wgt>
<wgt id='1847'> +0.0000000e+00 </wgt>
<wgt id='1848'> +0.0000000e+00 </wgt>
<wgt id='1849'> +0.0000000e+00 </wgt>
<wgt id='1850'> +0.0000000e+00 </wgt>
<wgt id='1851'> +0.0000000e+00 </wgt>
<wgt id='1852'> +0.0000000e+00 </wgt>
<wgt id='1853'> +0.0000000e+00 </wgt>
<wgt id='1854'> +0.0000000e+00 </wgt>
<wgt id='1855'> +0.0000000e+00 </wgt>
<wgt id='1856'> +0.0000000e+00 </wgt>
<wgt id='1857'> +0.0000000e+00 </wgt>
<wgt id='1858'> +0.0000000e+00 </wgt>
<wgt id='1859'> +0.0000000e+00 </wgt>
<wgt id='1860'> +0.0000000e+00 </wgt>
<wgt id='1861'> +0.0000000e+00 </wgt>
<wgt id='1862'> +0.0000000e+00 </wgt>
<wgt id='1863'> +0.0000000e+00 </wgt>
<wgt id='1864'> +0.0000000e+00 </wgt>
<wgt id='1865'> +0.0000000e+00 </wgt>
<wgt id='1866'> +0.0000000e+00 </wgt>
<wgt id='1867'> +0.0000000e+00 </wgt>
<wgt id='1868'> +0.0000000e+00 </wgt>
<wgt id='1869'> +0.0000000e+00 </wgt>
<wgt id='1870'> +0.0000000e+00 </wgt>
<wgt id='1871'> +0.0000000e+00 </wgt>
<wgt id='1872'> +0.0000000e+00 </wgt>
<wgt id='1873'> +0.0000000e+00 </wgt>
<wgt id='1874'> +0.0000000e+00 </wgt>
<wgt id='1875'> +0.0000000e+00 </wgt>
<wgt id='1876'> +0.0000000e+00 </wgt>
<wgt id='1877'> +0.0000000e+00 </wgt>
<wgt id='1878'> +0.0000000e+00 </wgt>
<wgt id='1879'> +0.0000000e+00 </wgt>
<wgt id='1880'> +0.0000000e+00 </wgt>
<wgt id='1881'> +0.0000000e+00 </wgt>
<wgt id='1882'> +0.0000000e+00 </wgt>
<wgt id='1883'> +0.0000000e+00 </wgt>
<wgt id='1884'> +0.0000000e+00 </wgt>
<wgt id='1885'> +0.0000000e+00 </wgt>
<wgt id='1886'> +0.0000000e+00 </wgt>
<wgt id='1887'> +0.0000000e+00 </wgt>
<wgt id='1888'> +0.0000000e+00 </wgt>
<wgt id='1889'> +0.0000000e+00 </wgt>
<wgt id='1890'> +0.0000000e+00 </wgt>
<wgt id='1891'> +0.0000000e+00 </wgt>
<wgt id='1892'> +0.0000000e+00 </wgt>
<wgt id='1893'> +0.0000000e+00 </wgt>
<wgt id='1894'> +0.0000000e+00 </wgt>
<wgt id='1895'> +0.0000000e+00 </wgt>
<wgt id='1896'> +0.0000000e+00 </wgt>
<wgt id='1897'> +0.0000000e+00 </wgt>
<wgt id='1898'> +0.0000000e+00 </wgt>
<wgt id='1899'> +0.0000000e+00 </wgt>
<wgt id='1900'> +0.0000000e+00 </wgt>
<wgt id='1901'> +0.0000000e+00 </wgt>
<wgt id='1902'> +0.0000000e+00 </wgt>
<wgt id='1903'> +0.0000000e+00 </wgt>
<wgt id='1904'> +0.0000000e+00 </wgt>
<wgt id='1905'> +0.0000000e+00 </wgt>
<wgt id='1906'> +0.0000000e+00 </wgt>
<wgt id='1907'> +0.0000000e+00 </wgt>
<wgt id='1908'> +0.0000000e+00 </wgt>
<wgt id='1909'> +0.0000000e+00 </wgt>
<wgt id='1910'> +0.0000000e+00 </wgt>
<wgt id='1911'> +0.0000000e+00 </wgt>
<wgt id='1912'> +0.0000000e+00 </wgt>
<wgt id='1913'> +0.0000000e+00 </wgt>
<wgt id='1914'> +0.0000000e+00 </wgt>
<wgt id='1915'> +0.0000000e+00 </wgt>
<wgt id='1916'> +0.0000000e+00 </wgt>
<wgt id='1917'> +0.0000000e+00 </wgt>
<wgt id='1918'> +0.0000000e+00 </wgt>
<wgt id='1919'> +0.0000000e+00 </wgt>
<wgt id='1920'> +0.0000000e+00 </wgt>
<wgt id='1921'> +0.0000000e+00 </wgt>
<wgt id='1922'> +0.0000000e+00 </wgt>
<wgt id='1923'> +0.0000000e+00 </wgt>
<wgt id='1924'> +0.0000000e+00 </wgt>
<wgt id='1925'> +0.0000000e+00 </wgt>
<wgt id='1926'> +0.0000000e+00 </wgt>
<wgt id='1927'> +0.0000000e+00 </wgt>
<wgt id='1928'> +0.0000000e+00 </wgt>
<wgt id='1929'> +0.0000000e+00 </wgt>
<wgt id='1930'> +0.0000000e+00 </wgt>
<wgt id='1931'> +0.0000000e+00 </wgt>
<wgt id='1932'> +0.0000000e+00 </wgt>
<wgt id='1933'> +0.0000000e+00 </wgt>
<wgt id='1934'> +0.0000000e+00 </wgt>
<wgt id='1935'> +0.0000000e+00 </wgt>
<wgt id='1936'> +0.0000000e+00 </wgt>
<wgt id='1937'> +0.0000000e+00 </wgt>
<wgt id='1938'> +0.0000000e+00 </wgt>
<wgt id='1939'> +0.0000000e+00 </wgt>
<wgt id='1940'> +0.0000000e+00 </wgt>
<wgt id='1941'> +0.0000000e+00 </wgt>
<wgt id='1942'> +0.0000000e+00 </wgt>
<wgt id='1943'> +0.0000000e+00 </wgt>
<wgt id='1944'> +0.0000000e+00 </wgt>
<wgt id='1945'> +0.0000000e+00 </wgt>
<wgt id='1946'> +0.0000000e+00 </wgt>
<wgt id='1947'> +0.0000000e+00 </wgt>
<wgt id='1948'> +0.0000000e+00 </wgt>
<wgt id='1949'> +0.0000000e+00 </wgt>
<wgt id='1950'> +0.0000000e+00 </wgt>
<wgt id='1951'> +0.0000000e+00 </wgt>
<wgt id='1952'> +0.0000000e+00 </wgt>
<wgt id='1953'> +0.0000000e+00 </wgt>
<wgt id='1954'> +0.0000000e+00 </wgt>
<wgt id='1955'> +0.0000000e+00 </wgt>
<wgt id='1956'> +0.0000000e+00 </wgt>
<wgt id='1957'> +0.0000000e+00 </wgt>
<wgt id='1958'> +0.0000000e+00 </wgt>
<wgt id='1959'> +0.0000000e+00 </wgt>
<wgt id='1960'> +0.0000000e+00 </wgt>
<wgt id='1961'> +0.0000000e+00 </wgt>
<wgt id='1962'> +0.0000000e+00 </wgt>
<wgt id='1963'> +0.0000000e+00 </wgt>
<wgt id='1964'> +0.0000000e+00 </wgt>
<wgt id='1965'> +0.0000000e+00 </wgt>
<wgt id='1966'> +0.0000000e+00 </wgt>
<wgt id='1967'> +0.0000000e+00 </wgt>
<wgt id='1968'> +0.0000000e+00 </wgt>
<wgt id='1969'> +0.0000000e+00 </wgt>
<wgt id='1970'> +0.0000000e+00 </wgt>
<wgt id='1971'> +0.0000000e+00 </wgt>
<wgt id='1972'> +0.0000000e+00 </wgt>
<wgt id='1973'> +0.0000000e+00 </wgt>
<wgt id='1974'> +0.0000000e+00 </wgt>
<wgt id='1975'> +0.0000000e+00 </wgt>
<wgt id='1976'> +0.0000000e+00 </wgt>
<wgt id='1977'> +0.0000000e+00 </wgt>
<wgt id='1978'> +0.0000000e+00 </wgt>
<wgt id='1979'> +0.0000000e+00 </wgt>
<wgt id='1980'> +0.0000000e+00 </wgt>
<wgt id='1981'> +0.0000000e+00 </wgt>
<wgt id='1982'> +0.0000000e+00 </wgt>
<wgt id='1983'> +0.0000000e+00 </wgt>
<wgt id='1984'> +0.0000000e+00 </wgt>
<wgt id='1985'> +0.0000000e+00 </wgt>
<wgt id='1986'> +0.0000000e+00 </wgt>
<wgt id='1987'> +0.0000000e+00 </wgt>
<wgt id='1988'> +0.0000000e+00 </wgt>
<wgt id='1989'> +0.0000000e+00 </wgt>
<wgt id='1990'> +0.0000000e+00 </wgt>
<wgt id='1991'> +0.0000000e+00 </wgt>
<wgt id='1992'> +0.0000000e+00 </wgt>
<wgt id='1993'> +0.0000000e+00 </wgt>
<wgt id='1994'> +0.0000000e+00 </wgt>
<wgt id='1995'> +0.0000000e+00 </wgt>
<wgt id='1996'> +0.0000000e+00 </wgt>
<wgt id='1997'> +0.0000000e+00 </wgt>
<wgt id='1998'> +0.0000000e+00 </wgt>
<wgt id='1999'> +0.0000000e+00 </wgt>
<wgt id='2000'> +0.0000000e+00 </wgt>
<wgt id='2001'> +0.0000000e+00 </wgt>
<wgt id='2002'> +0.0000000e+00 </wgt>
<wgt id='2003'> +0.0000000e+00 </wgt>
<wgt id='2004'> +0.0000000e+00 </wgt>
<wgt id='2005'> +0.0000000e+00 </wgt>
<wgt id='2006'> +0.0000000e+00 </wgt>
<wgt id='2007'> +0.0000000e+00 </wgt>
<wgt id='2008'> +0.0000000e+00 </wgt>
<wgt id='2009'> +0.0000000e+00 </wgt>
<wgt id='2010'> +0.0000000e+00 </wgt>
<wgt id='2011'> +0.0000000e+00 </wgt>
<wgt id='2012'> +0.0000000e+00 </wgt>
<wgt id='2013'> +0.0000000e+00 </wgt>
<wgt id='2014'> +0.0000000e+00 </wgt>
<wgt id='2015'> +0.0000000e+00 </wgt>
<wgt id='2016'> +0.0000000e+00 </wgt>
<wgt id='2017'> +0.0000000e+00 </wgt>
<wgt id='2018'> +0.0000000e+00 </wgt>
<wgt id='2019'> +0.0000000e+00 </wgt>
<wgt id='2020'> +0.0000000e+00 </wgt>
<wgt id='2021'> +0.0000000e+00 </wgt>
<wgt id='2022'> +0.0000000e+00 </wgt>
</rwgt>
</event>
<event>
14      1 +1.5732536e-04 6.85356100e+02 7.81860800e-03 1.11506400e-01
        2 -1    0    0  501    0 +0.0000000000e+00 +0.0000000000e+00 +2.3403554571e+03 2.3403554571e+03 2.5500000000e-03 0.0000e+00 -1.0000e+00
        5 -1    0    0  502    0 +0.0000000000e+00 +0.0000000000e+00 -4.5630401737e+02 4.5632822208e+02 4.7000000000e+00 0.0000e+00 -1.0000e+00
        2  1    1    2  501    0 -2.6123851172e+01 +2.6752215667e+00 +6.9075094134e+02 6.9124993698e+02 2.5500000000e-03 0.0000e+00 -1.0000e+00
      -24  2    1    2    0    0 -2.3921872575e+02 -4.1590897233e+02 -1.6383838180e+02 5.1395029584e+02 8.4237872932e+01 0.0000e+00 0.0000e+00
      -16  1    4    4    0    0 -5.7256287733e+01 -4.1148609527e+01 -2.1936653645e+01 7.3842449337e+01 0.0000000000e+00 0.0000e+00 1.0000e+00
       15  1    4    4    0    0 -1.8196243802e+02 -3.7476036280e+02 -1.4190172815e+02 4.4010784650e+02 1.7770000000e+00 0.0000e+00 -1.0000e+00
       23  2    1    2    0    0 -2.2952143944e+01 -1.1904984527e+02 +8.7773783859e+01 1.7463515534e+02 8.9964069368e+01 0.0000e+00 0.0000e+00
        1  1    7    7  503    0 +1.5091980823e+01 -9.6840820126e+01 +8.6250327453e+01 1.3055662120e+02 5.0400000000e-03 0.0000e+00 -1.0000e+00
       -1  1    7    7    0  503 -3.8044124767e+01 -2.2209025140e+01 +1.5234564067e+00 4.4078534138e+01 5.0400000000e-03 0.0000e+00 1.0000e+00
        6  2    1    2  502    0 +2.8829472086e+02 +5.3228359603e+02 +1.2693650963e+03 1.4168482910e+03 1.7242870789e+02 0.0000e+00 0.0000e+00
        5  1   10   10  502    0 +1.0965622628e+02 +7.5990866911e+01 +2.8586912707e+02 3.1550332427e+02 4.7000000000e+00 0.0000e+00 -1.0000e+00
       24  2   10   10    0    0 +1.7863849459e+02 +4.5629272911e+02 +9.8349596926e+02 1.1013449667e+03 7.4710426581e+01 0.0000e+00 0.0000e+00
        4  1   12   12  504    0 +1.7942649891e+02 +4.0111641209e+02 +8.9501977074e+02 9.9707083373e+02 1.2700000000e+00 0.0000e+00 -1.0000e+00
       -3  1   12   12    0  504 -7.8800432481e-01 +5.5176317021e+01 +8.8476198517e+01 1.0427413301e+02 1.0100000000e-01 0.0000e+00 1.0000e+00
<mgrwt>
<rscale>  0 0.13415579e+03</rscale>
<asrwt>0</asrwt>
<pdfrwt beam="1">  1        2 0.33433650e+00 0.26260473e+02</pdfrwt>
<pdfrwt beam="2">  1        5 0.65188352e-01 0.68535614e+03</pdfrwt>
<totfact> 0.67407090e+00</totfact>
</mgrwt>
<rwgt>
<wgt id='1001'> +1.5732536e-04 </wgt>
<wgt id='1002'> +1.0500209e-04 </wgt>
<wgt id='1003'> +1.0500180e-04 </wgt>
<wgt id='1004'> +1.0855455e-04 </wgt>
<wgt id='1005'> +1.0235640e-04 </wgt>
<wgt id='1006'> +1.5732536e-04 </wgt>
<wgt id='1007'> +1.0500209e-04 </wgt>
<wgt id='1008'> +1.0500180e-04 </wgt>
<wgt id='1009'> +1.0855455e-04 </wgt>
<wgt id='1010'> +1.0235640e-04 </wgt>
<wgt id='1011'> +1.5732536e-04 </wgt>
<wgt id='1012'> +1.0500209e-04 </wgt>
<wgt id='1013'> +1.0500180e-04 </wgt>
<wgt id='1014'> +1.0855455e-04 </wgt>
<wgt id='1015'> +1.0235640e-04 </wgt>
<wgt id='1016'> +1.4746497e-04 </wgt>
<wgt id='1017'> +1.0111857e-04 </wgt>
<wgt id='1018'> +1.0111826e-04 </wgt>
<wgt id='1019'> +1.0500180e-04 </wgt>
<wgt id='1020'> +9.8380820e-05 </wgt>
<wgt id='1021'> +1.4746497e-04 </wgt>
<wgt id='1022'> +1.0111857e-04 </wgt>
<wgt id='1023'> +1.0111826e-04 </wgt>
<wgt id='1024'> +1.0500180e-04 </wgt>
<wgt id='1025'> +9.8380820e-05 </wgt>
<wgt id='1026'> +1.4746497e-04 </wgt>
<wgt id='1027'> +1.0111857e-04 </wgt>
<wgt id='1028'> +1.0111826e-04 </wgt>
<wgt id='1029'> +1.0500180e-04 </wgt>
<wgt id='1030'> +9.8380820e-05 </wgt>
<wgt id='1031'> +1.6788325e-04 </wgt>
<wgt id='1032'> +1.0855481e-04 </wgt>
<wgt id='1033'> +1.0855455e-04 </wgt>
<wgt id='1034'> +1.1143132e-04 </wgt>
<wgt id='1035'> +1.0615884e-04 </wgt>
<wgt id='1036'> +1.6788325e-04 </wgt>
<wgt id='1037'> +1.0855481e-04 </wgt>
<wgt id='1038'> +1.0855455e-04 </wgt>
<wgt id='1039'> +1.1143132e-04 </wgt>
<wgt id='1040'> +1.0615884e-04 </wgt>
<wgt id='1041'> +1.6788325e-04 </wgt>
<wgt id='1042'> +1.0855481e-04 </wgt>
<wgt id='1043'> +1.0855455e-04 </wgt>
<wgt id='1044'> +1.1143132e-04 </wgt>
<wgt id='1045'> +1.0615884e-04 </wgt>
<wgt id='1046'> +1.5732536e-04 </wgt>
<wgt id='1047'> +1.5732536e-04 </wgt>
<wgt id='1048'> +0.0000000e+00 </wgt>
<wgt id='1049'> +0.0000000e+00 </wgt>
<wgt id='1050'> +0.0000000e+00 </wgt>
<wgt id='1051'> +0.0000000e+00 </wgt>
<wgt id='1052'> +0.0000000e+00 </wgt>
<wgt id='1053'> +0.0000000e+00 </wgt>
<wgt id='1054'> +0.0000000e+00 </wgt>
<wgt id='1055'> +0.0000000e+00 </wgt>
<wgt id='1056'> +0.0000000e+00 </wgt>
<wgt id='1057'> +0.0000000e+00 </wgt>
<wgt id='1058'> +0.0000000e+00 </wgt>
<wgt id='1059'> +0.0000000e+00 </wgt>
<wgt id='1060'> +0.0000000e+00 </wgt>
<wgt id='1061'> +0.0000000e+00 </wgt>
<wgt id='1062'> +0.0000000e+00 </wgt>
<wgt id='1063'> +0.0000000e+00 </wgt>
<wgt id='1064'> +0.0000000e+00 </wgt>
<wgt id='1065'> +0.0000000e+00 </wgt>
<wgt id='1066'> +0.0000000e+00 </wgt>
<wgt id='1067'> +0.0000000e+00 </wgt>
<wgt id='1068'> +0.0000000e+00 </wgt>
<wgt id='1069'> +0.0000000e+00 </wgt>
<wgt id='1070'> +0.0000000e+00 </wgt>
<wgt id='1071'> +0.0000000e+00 </wgt>
<wgt id='1072'> +0.0000000e+00 </wgt>
<wgt id='1073'> +0.0000000e+00 </wgt>
<wgt id='1074'> +0.0000000e+00 </wgt>
<wgt id='1075'> +0.0000000e+00 </wgt>
<wgt id='1076'> +0.0000000e+00 </wgt>
<wgt id='1077'> +0.0000000e+00 </wgt>
<wgt id='1078'> +0.0000000e+00 </wgt>
<wgt id='1079'> +0.0000000e+00 </wgt>
<wgt id='1080'> +0.0000000e+00 </wgt>
<wgt id='1081'> +0.0000000e+00 </wgt>
<wgt id='1082'> +0.0000000e+00 </wgt>
<wgt id='1083'> +0.0000000e+00 </wgt>
<wgt id='1084'> +0.0000000e+00 </wgt>
<wgt id='1085'> +0.0000000e+00 </wgt>
<wgt id='1086'> +0.0000000e+00 </wgt>
<wgt id='1087'> +0.0000000e+00 </wgt>
<wgt id='1088'> +0.0000000e+00 </wgt>
<wgt id='1089'> +0.0000000e+00 </wgt>
<wgt id='1090'> +0.0000000e+00 </wgt>
<wgt id='1091'> +0.0000000e+00 </wgt>
<wgt id='1092'> +0.0000000e+00 </wgt>
<wgt id='1093'> +0.0000000e+00 </wgt>
<wgt id='1094'> +0.0000000e+00 </wgt>
<wgt id='1095'> +0.0000000e+00 </wgt>
<wgt id='1096'> +0.0000000e+00 </wgt>
<wgt id='1097'> +0.0000000e+00 </wgt>
<wgt id='1098'> +0.0000000e+00 </wgt>
<wgt id='1099'> +0.0000000e+00 </wgt>
<wgt id='1100'> +0.0000000e+00 </wgt>
<wgt id='1101'> +0.0000000e+00 </wgt>
<wgt id='1102'> +0.0000000e+00 </wgt>
<wgt id='1103'> +0.0000000e+00 </wgt>
<wgt id='1104'> +0.0000000e+00 </wgt>
<wgt id='1105'> +0.0000000e+00 </wgt>
<wgt id='1106'> +0.0000000e+00 </wgt>
<wgt id='1107'> +0.0000000e+00 </wgt>
<wgt id='1108'> +0.0000000e+00 </wgt>
<wgt id='1109'> +0.0000000e+00 </wgt>
<wgt id='1110'> +0.0000000e+00 </wgt>
<wgt id='1111'> +0.0000000e+00 </wgt>
<wgt id='1112'> +0.0000000e+00 </wgt>
<wgt id='1113'> +0.0000000e+00 </wgt>
<wgt id='1114'> +0.0000000e+00 </wgt>
<wgt id='1115'> +0.0000000e+00 </wgt>
<wgt id='1116'> +0.0000000e+00 </wgt>
<wgt id='1117'> +0.0000000e+00 </wgt>
<wgt id='1118'> +0.0000000e+00 </wgt>
<wgt id='1119'> +0.0000000e+00 </wgt>
<wgt id='1120'> +0.0000000e+00 </wgt>
<wgt id='1121'> +0.0000000e+00 </wgt>
<wgt id='1122'> +0.0000000e+00 </wgt>
<wgt id='1123'> +0.0000000e+00 </wgt>
<wgt id='1124'> +0.0000000e+00 </wgt>
<wgt id='1125'> +0.0000000e+00 </wgt>
<wgt id='1126'> +0.0000000e+00 </wgt>
<wgt id='1127'> +0.0000000e+00 </wgt>
<wgt id='1128'> +0.0000000e+00 </wgt>
<wgt id='1129'> +0.0000000e+00 </wgt>
<wgt id='1130'> +0.0000000e+00 </wgt>
<wgt id='1131'> +0.0000000e+00 </wgt>
<wgt id='1132'> +0.0000000e+00 </wgt>
<wgt id='1133'> +0.0000000e+00 </wgt>
<wgt id='1134'> +0.0000000e+00 </wgt>
<wgt id='1135'> +0.0000000e+00 </wgt>
<wgt id='1136'> +0.0000000e+00 </wgt>
<wgt id='1137'> +0.0000000e+00 </wgt>
<wgt id='1138'> +0.0000000e+00 </wgt>
<wgt id='1139'> +0.0000000e+00 </wgt>
<wgt id='1140'> +0.0000000e+00 </wgt>
<wgt id='1141'> +0.0000000e+00 </wgt>
<wgt id='1142'> +0.0000000e+00 </wgt>
<wgt id='1143'> +0.0000000e+00 </wgt>
<wgt id='1144'> +0.0000000e+00 </wgt>
<wgt id='1145'> +0.0000000e+00 </wgt>
<wgt id='1146'> +0.0000000e+00 </wgt>
<wgt id='1147'> +0.0000000e+00 </wgt>
<wgt id='1148'> +0.0000000e+00 </wgt>
<wgt id='1149'> +0.0000000e+00 </wgt>
<wgt id='1150'> +0.0000000e+00 </wgt>
<wgt id='1151'> +0.0000000e+00 </wgt>
<wgt id='1152'> +0.0000000e+00 </wgt>
<wgt id='1153'> +0.0000000e+00 </wgt>
<wgt id='1154'> +0.0000000e+00 </wgt>
<wgt id='1155'> +0.0000000e+00 </wgt>
<wgt id='1156'> +0.0000000e+00 </wgt>
<wgt id='1157'> +0.0000000e+00 </wgt>
<wgt id='1158'> +0.0000000e+00 </wgt>
<wgt id='1159'> +0.0000000e+00 </wgt>
<wgt id='1160'> +0.0000000e+00 </wgt>
<wgt id='1161'> +0.0000000e+00 </wgt>
<wgt id='1162'> +0.0000000e+00 </wgt>
<wgt id='1163'> +0.0000000e+00 </wgt>
<wgt id='1164'> +0.0000000e+00 </wgt>
<wgt id='1165'> +0.0000000e+00 </wgt>
<wgt id='1166'> +0.0000000e+00 </wgt>
<wgt id='1167'> +0.0000000e+00 </wgt>
<wgt id='1168'> +0.0000000e+00 </wgt>
<wgt id='1169'> +0.0000000e+00 </wgt>
<wgt id='1170'> +0.0000000e+00 </wgt>
<wgt id='1171'> +0.0000000e+00 </wgt>
<wgt id='1172'> +0.0000000e+00 </wgt>
<wgt id='1173'> +0.0000000e+00 </wgt>
<wgt id='1174'> +0.0000000e+00 </wgt>
<wgt id='1175'> +0.0000000e+00 </wgt>
<wgt id='1176'> +0.0000000e+00 </wgt>
<wgt id='1177'> +0.0000000e+00 </wgt>
<wgt id='1178'> +0.0000000e+00 </wgt>
<wgt id='1179'> +0.0000000e+00 </wgt>
<wgt id='1180'> +0.0000000e+00 </wgt>
<wgt id='1181'> +0.0000000e+00 </wgt>
<wgt id='1182'> +0.0000000e+00 </wgt>
<wgt id='1183'> +0.0000000e+00 </wgt>
<wgt id='1184'> +0.0000000e+00 </wgt>
<wgt id='1185'> +0.0000000e+00 </wgt>
<wgt id='1186'> +0.0000000e+00 </wgt>
<wgt id='1187'> +0.0000000e+00 </wgt>
<wgt id='1188'> +0.0000000e+00 </wgt>
<wgt id='1189'> +0.0000000e+00 </wgt>
<wgt id='1190'> +0.0000000e+00 </wgt>
<wgt id='1191'> +0.0000000e+00 </wgt>
<wgt id='1192'> +0.0000000e+00 </wgt>
<wgt id='1193'> +0.0000000e+00 </wgt>
<wgt id='1194'> +0.0000000e+00 </wgt>
<wgt id='1195'> +0.0000000e+00 </wgt>
<wgt id='1196'> +0.0000000e+00 </wgt>
<wgt id='1197'> +0.0000000e+00 </wgt>
<wgt id='1198'> +0.0000000e+00 </wgt>
<wgt id='1199'> +0.0000000e+00 </wgt>
<wgt id='1200'> +0.0000000e+00 </wgt>
<wgt id='1201'> +0.0000000e+00 </wgt>
<wgt id='1202'> +0.0000000e+00 </wgt>
<wgt id='1203'> +0.0000000e+00 </wgt>
<wgt id='1204'> +0.0000000e+00 </wgt>
<wgt id='1205'> +0.0000000e+00 </wgt>
<wgt id='1206'> +0.0000000e+00 </wgt>
<wgt id='1207'> +0.0000000e+00 </wgt>
<wgt id='1208'> +0.0000000e+00 </wgt>
<wgt id='1209'> +0.0000000e+00 </wgt>
<wgt id='1210'> +0.0000000e+00 </wgt>
<wgt id='1211'> +0.0000000e+00 </wgt>
<wgt id='1212'> +0.0000000e+00 </wgt>
<wgt id='1213'> +0.0000000e+00 </wgt>
<wgt id='1214'> +0.0000000e+00 </wgt>
<wgt id='1215'> +0.0000000e+00 </wgt>
<wgt id='1216'> +0.0000000e+00 </wgt>
<wgt id='1217'> +0.0000000e+00 </wgt>
<wgt id='1218'> +0.0000000e+00 </wgt>
<wgt id='1219'> +0.0000000e+00 </wgt>
<wgt id='1220'> +0.0000000e+00 </wgt>
<wgt id='1221'> +0.0000000e+00 </wgt>
<wgt id='1222'> +0.0000000e+00 </wgt>
<wgt id='1223'> +0.0000000e+00 </wgt>
<wgt id='1224'> +0.0000000e+00 </wgt>
<wgt id='1225'> +0.0000000e+00 </wgt>
<wgt id='1226'> +0.0000000e+00 </wgt>
<wgt id='1227'> +0.0000000e+00 </wgt>
<wgt id='1228'> +0.0000000e+00 </wgt>
<wgt id='1229'> +0.0000000e+00 </wgt>
<wgt id='1230'> +0.0000000e+00 </wgt>
<wgt id='1231'> +0.0000000e+00 </wgt>
<wgt id='1232'> +0.0000000e+00 </wgt>
<wgt id='1233'> +0.0000000e+00 </wgt>
<wgt id='1234'> +0.0000000e+00 </wgt>
<wgt id='1235'> +0.0000000e+00 </wgt>
<wgt id='1236'> +0.0000000e+00 </wgt>
<wgt id='1237'> +0.0000000e+00 </wgt>
<wgt id='1238'> +0.0000000e+00 </wgt>
<wgt id='1239'> +0.0000000e+00 </wgt>
<wgt id='1240'> +0.0000000e+00 </wgt>
<wgt id='1241'> +0.0000000e+00 </wgt>
<wgt id='1242'> +0.0000000e+00 </wgt>
<wgt id='1243'> +0.0000000e+00 </wgt>
<wgt id='1244'> +0.0000000e+00 </wgt>
<wgt id='1245'> +0.0000000e+00 </wgt>
<wgt id='1246'> +0.0000000e+00 </wgt>
<wgt id='1247'> +0.0000000e+00 </wgt>
<wgt id='1248'> +0.0000000e+00 </wgt>
<wgt id='1249'> +0.0000000e+00 </wgt>
<wgt id='1250'> +0.0000000e+00 </wgt>
<wgt id='1251'> +0.0000000e+00 </wgt>
<wgt id='1252'> +0.0000000e+00 </wgt>
<wgt id='1253'> +0.0000000e+00 </wgt>
<wgt id='1254'> +0.0000000e+00 </wgt>
<wgt id='1255'> +0.0000000e+00 </wgt>
<wgt id='1256'> +0.0000000e+00 </wgt>
<wgt id='1257'> +0.0000000e+00 </wgt>
<wgt id='1258'> +0.0000000e+00 </wgt>
<wgt id='1259'> +0.0000000e+00 </wgt>
<wgt id='1260'> +0.0000000e+00 </wgt>
<wgt id='1261'> +0.0000000e+00 </wgt>
<wgt id='1262'> +0.0000000e+00 </wgt>
<wgt id='1263'> +0.0000000e+00 </wgt>
<wgt id='1264'> +0.0000000e+00 </wgt>
<wgt id='1265'> +0.0000000e+00 </wgt>
<wgt id='1266'> +0.0000000e+00 </wgt>
<wgt id='1267'> +0.0000000e+00 </wgt>
<wgt id='1268'> +0.0000000e+00 </wgt>
<wgt id='1269'> +0.0000000e+00 </wgt>
<wgt id='1270'> +0.0000000e+00 </wgt>
<wgt id='1271'> +0.0000000e+00 </wgt>
<wgt id='1272'> +0.0000000e+00 </wgt>
<wgt id='1273'> +0.0000000e+00 </wgt>
<wgt id='1274'> +0.0000000e+00 </wgt>
<wgt id='1275'> +0.0000000e+00 </wgt>
<wgt id='1276'> +0.0000000e+00 </wgt>
<wgt id='1277'> +0.0000000e+00 </wgt>
<wgt id='1278'> +0.0000000e+00 </wgt>
<wgt id='1279'> +0.0000000e+00 </wgt>
<wgt id='1280'> +0.0000000e+00 </wgt>
<wgt id='1281'> +0.0000000e+00 </wgt>
<wgt id='1282'> +0.0000000e+00 </wgt>
<wgt id='1283'> +0.0000000e+00 </wgt>
<wgt id='1284'> +0.0000000e+00 </wgt>
<wgt id='1285'> +0.0000000e+00 </wgt>
<wgt id='1286'> +0.0000000e+00 </wgt>
<wgt id='1287'> +0.0000000e+00 </wgt>
<wgt id='1288'> +0.0000000e+00 </wgt>
<wgt id='1289'> +0.0000000e+00 </wgt>
<wgt id='1290'> +0.0000000e+00 </wgt>
<wgt id='1291'> +0.0000000e+00 </wgt>
<wgt id='1292'> +0.0000000e+00 </wgt>
<wgt id='1293'> +0.0000000e+00 </wgt>
<wgt id='1294'> +0.0000000e+00 </wgt>
<wgt id='1295'> +0.0000000e+00 </wgt>
<wgt id='1296'> +0.0000000e+00 </wgt>
<wgt id='1297'> +0.0000000e+00 </wgt>
<wgt id='1298'> +0.0000000e+00 </wgt>
<wgt id='1299'> +0.0000000e+00 </wgt>
<wgt id='1300'> +0.0000000e+00 </wgt>
<wgt id='1301'> +0.0000000e+00 </wgt>
<wgt id='1302'> +0.0000000e+00 </wgt>
<wgt id='1303'> +0.0000000e+00 </wgt>
<wgt id='1304'> +0.0000000e+00 </wgt>
<wgt id='1305'> +0.0000000e+00 </wgt>
<wgt id='1306'> +0.0000000e+00 </wgt>
<wgt id='1307'> +0.0000000e+00 </wgt>
<wgt id='1308'> +0.0000000e+00 </wgt>
<wgt id='1309'> +0.0000000e+00 </wgt>
<wgt id='1310'> +0.0000000e+00 </wgt>
<wgt id='1311'> +0.0000000e+00 </wgt>
<wgt id='1312'> +0.0000000e+00 </wgt>
<wgt id='1313'> +0.0000000e+00 </wgt>
<wgt id='1314'> +0.0000000e+00 </wgt>
<wgt id='1315'> +0.0000000e+00 </wgt>
<wgt id='1316'> +0.0000000e+00 </wgt>
<wgt id='1317'> +0.0000000e+00 </wgt>
<wgt id='1318'> +0.0000000e+00 </wgt>
<wgt id='1319'> +0.0000000e+00 </wgt>
<wgt id='1320'> +0.0000000e+00 </wgt>
<wgt id='1321'> +0.0000000e+00 </wgt>
<wgt id='1322'> +0.0000000e+00 </wgt>
<wgt id='1323'> +0.0000000e+00 </wgt>
<wgt id='1324'> +0.0000000e+00 </wgt>
<wgt id='1325'> +0.0000000e+00 </wgt>
<wgt id='1326'> +0.0000000e+00 </wgt>
<wgt id='1327'> +0.0000000e+00 </wgt>
<wgt id='1328'> +0.0000000e+00 </wgt>
<wgt id='1329'> +0.0000000e+00 </wgt>
<wgt id='1330'> +0.0000000e+00 </wgt>
<wgt id='1331'> +0.0000000e+00 </wgt>
<wgt id='1332'> +0.0000000e+00 </wgt>
<wgt id='1333'> +0.0000000e+00 </wgt>
<wgt id='1334'> +0.0000000e+00 </wgt>
<wgt id='1335'> +0.0000000e+00 </wgt>
<wgt id='1336'> +0.0000000e+00 </wgt>
<wgt id='1337'> +0.0000000e+00 </wgt>
<wgt id='1338'> +0.0000000e+00 </wgt>
<wgt id='1339'> +0.0000000e+00 </wgt>
<wgt id='1340'> +0.0000000e+00 </wgt>
<wgt id='1341'> +0.0000000e+00 </wgt>
<wgt id='1342'> +0.0000000e+00 </wgt>
<wgt id='1343'> +0.0000000e+00 </wgt>
<wgt id='1344'> +0.0000000e+00 </wgt>
<wgt id='1345'> +0.0000000e+00 </wgt>
<wgt id='1346'> +0.0000000e+00 </wgt>
<wgt id='1347'> +0.0000000e+00 </wgt>
<wgt id='1348'> +0.0000000e+00 </wgt>
<wgt id='1349'> +0.0000000e+00 </wgt>
<wgt id='1350'> +0.0000000e+00 </wgt>
<wgt id='1351'> +0.0000000e+00 </wgt>
<wgt id='1352'> +0.0000000e+00 </wgt>
<wgt id='1353'> +0.0000000e+00 </wgt>
<wgt id='1354'> +0.0000000e+00 </wgt>
<wgt id='1355'> +0.0000000e+00 </wgt>
<wgt id='1356'> +0.0000000e+00 </wgt>
<wgt id='1357'> +0.0000000e+00 </wgt>
<wgt id='1358'> +0.0000000e+00 </wgt>
<wgt id='1359'> +0.0000000e+00 </wgt>
<wgt id='1360'> +0.0000000e+00 </wgt>
<wgt id='1361'> +0.0000000e+00 </wgt>
<wgt id='1362'> +0.0000000e+00 </wgt>
<wgt id='1363'> +0.0000000e+00 </wgt>
<wgt id='1364'> +0.0000000e+00 </wgt>
<wgt id='1365'> +0.0000000e+00 </wgt>
<wgt id='1366'> +0.0000000e+00 </wgt>
<wgt id='1367'> +0.0000000e+00 </wgt>
<wgt id='1368'> +0.0000000e+00 </wgt>
<wgt id='1369'> +0.0000000e+00 </wgt>
<wgt id='1370'> +0.0000000e+00 </wgt>
<wgt id='1371'> +0.0000000e+00 </wgt>
<wgt id='1372'> +0.0000000e+00 </wgt>
<wgt id='1373'> +0.0000000e+00 </wgt>
<wgt id='1374'> +0.0000000e+00 </wgt>
<wgt id='1375'> +0.0000000e+00 </wgt>
<wgt id='1376'> +0.0000000e+00 </wgt>
<wgt id='1377'> +0.0000000e+00 </wgt>
<wgt id='1378'> +0.0000000e+00 </wgt>
<wgt id='1379'> +0.0000000e+00 </wgt>
<wgt id='1380'> +0.0000000e+00 </wgt>
<wgt id='1381'> +0.0000000e+00 </wgt>
<wgt id='1382'> +0.0000000e+00 </wgt>
<wgt id='1383'> +0.0000000e+00 </wgt>
<wgt id='1384'> +0.0000000e+00 </wgt>
<wgt id='1385'> +0.0000000e+00 </wgt>
<wgt id='1386'> +0.0000000e+00 </wgt>
<wgt id='1387'> +0.0000000e+00 </wgt>
<wgt id='1388'> +0.0000000e+00 </wgt>
<wgt id='1389'> +0.0000000e+00 </wgt>
<wgt id='1390'> +0.0000000e+00 </wgt>
<wgt id='1391'> +0.0000000e+00 </wgt>
<wgt id='1392'> +0.0000000e+00 </wgt>
<wgt id='1393'> +0.0000000e+00 </wgt>
<wgt id='1394'> +0.0000000e+00 </wgt>
<wgt id='1395'> +0.0000000e+00 </wgt>
<wgt id='1396'> +0.0000000e+00 </wgt>
<wgt id='1397'> +0.0000000e+00 </wgt>
<wgt id='1398'> +0.0000000e+00 </wgt>
<wgt id='1399'> +0.0000000e+00 </wgt>
<wgt id='1400'> +0.0000000e+00 </wgt>
<wgt id='1401'> +0.0000000e+00 </wgt>
<wgt id='1402'> +0.0000000e+00 </wgt>
<wgt id='1403'> +0.0000000e+00 </wgt>
<wgt id='1404'> +0.0000000e+00 </wgt>
<wgt id='1405'> +0.0000000e+00 </wgt>
<wgt id='1406'> +0.0000000e+00 </wgt>
<wgt id='1407'> +0.0000000e+00 </wgt>
<wgt id='1408'> +0.0000000e+00 </wgt>
<wgt id='1409'> +0.0000000e+00 </wgt>
<wgt id='1410'> +0.0000000e+00 </wgt>
<wgt id='1411'> +0.0000000e+00 </wgt>
<wgt id='1412'> +0.0000000e+00 </wgt>
<wgt id='1413'> +0.0000000e+00 </wgt>
<wgt id='1414'> +0.0000000e+00 </wgt>
<wgt id='1415'> +0.0000000e+00 </wgt>
<wgt id='1416'> +0.0000000e+00 </wgt>
<wgt id='1417'> +0.0000000e+00 </wgt>
<wgt id='1418'> +0.0000000e+00 </wgt>
<wgt id='1419'> +0.0000000e+00 </wgt>
<wgt id='1420'> +0.0000000e+00 </wgt>
<wgt id='1421'> +0.0000000e+00 </wgt>
<wgt id='1422'> +0.0000000e+00 </wgt>
<wgt id='1423'> +0.0000000e+00 </wgt>
<wgt id='1424'> +0.0000000e+00 </wgt>
<wgt id='1425'> +0.0000000e+00 </wgt>
<wgt id='1426'> +0.0000000e+00 </wgt>
<wgt id='1427'> +0.0000000e+00 </wgt>
<wgt id='1428'> +0.0000000e+00 </wgt>
<wgt id='1429'> +0.0000000e+00 </wgt>
<wgt id='1430'> +0.0000000e+00 </wgt>
<wgt id='1431'> +0.0000000e+00 </wgt>
<wgt id='1432'> +0.0000000e+00 </wgt>
<wgt id='1433'> +0.0000000e+00 </wgt>
<wgt id='1434'> +0.0000000e+00 </wgt>
<wgt id='1435'> +0.0000000e+00 </wgt>
<wgt id='1436'> +0.0000000e+00 </wgt>
<wgt id='1437'> +0.0000000e+00 </wgt>
<wgt id='1438'> +0.0000000e+00 </wgt>
<wgt id='1439'> +0.0000000e+00 </wgt>
<wgt id='1440'> +0.0000000e+00 </wgt>
<wgt id='1441'> +0.0000000e+00 </wgt>
<wgt id='1442'> +0.0000000e+00 </wgt>
<wgt id='1443'> +0.0000000e+00 </wgt>
<wgt id='1444'> +0.0000000e+00 </wgt>
<wgt id='1445'> +0.0000000e+00 </wgt>
<wgt id='1446'> +0.0000000e+00 </wgt>
<wgt id='1447'> +0.0000000e+00 </wgt>
<wgt id='1448'> +0.0000000e+00 </wgt>
<wgt id='1449'> +0.0000000e+00 </wgt>
<wgt id='1450'> +0.0000000e+00 </wgt>
<wgt id='1451'> +0.0000000e+00 </wgt>
<wgt id='1452'> +0.0000000e+00 </wgt>
<wgt id='1453'> +0.0000000e+00 </wgt>
<wgt id='1454'> +0.0000000e+00 </wgt>
<wgt id='1455'> +0.0000000e+00 </wgt>
<wgt id='1456'> +0.0000000e+00 </wgt>
<wgt id='1457'> +0.0000000e+00 </wgt>
<wgt id='1458'> +0.0000000e+00 </wgt>
<wgt id='1459'> +0.0000000e+00 </wgt>
<wgt id='1460'> +0.0000000e+00 </wgt>
<wgt id='1461'> +0.0000000e+00 </wgt>
<wgt id='1462'> +0.0000000e+00 </wgt>
<wgt id='1463'> +0.0000000e+00 </wgt>
<wgt id='1464'> +0.0000000e+00 </wgt>
<wgt id='1465'> +0.0000000e+00 </wgt>
<wgt id='1466'> +0.0000000e+00 </wgt>
<wgt id='1467'> +0.0000000e+00 </wgt>
<wgt id='1468'> +0.0000000e+00 </wgt>
<wgt id='1469'> +0.0000000e+00 </wgt>
<wgt id='1470'> +0.0000000e+00 </wgt>
<wgt id='1471'> +0.0000000e+00 </wgt>
<wgt id='1472'> +0.0000000e+00 </wgt>
<wgt id='1473'> +0.0000000e+00 </wgt>
<wgt id='1474'> +0.0000000e+00 </wgt>
<wgt id='1475'> +0.0000000e+00 </wgt>
<wgt id='1476'> +0.0000000e+00 </wgt>
<wgt id='1477'> +0.0000000e+00 </wgt>
<wgt id='1478'> +0.0000000e+00 </wgt>
<wgt id='1479'> +0.0000000e+00 </wgt>
<wgt id='1480'> +0.0000000e+00 </wgt>
<wgt id='1481'> +0.0000000e+00 </wgt>
<wgt id='1482'> +0.0000000e+00 </wgt>
<wgt id='1483'> +0.0000000e+00 </wgt>
<wgt id='1484'> +0.0000000e+00 </wgt>
<wgt id='1485'> +0.0000000e+00 </wgt>
<wgt id='1486'> +0.0000000e+00 </wgt>
<wgt id='1487'> +0.0000000e+00 </wgt>
<wgt id='1488'> +0.0000000e+00 </wgt>
<wgt id='1489'> +0.0000000e+00 </wgt>
<wgt id='1490'> +0.0000000e+00 </wgt>
<wgt id='1491'> +0.0000000e+00 </wgt>
<wgt id='1492'> +0.0000000e+00 </wgt>
<wgt id='1493'> +0.0000000e+00 </wgt>
<wgt id='1494'> +0.0000000e+00 </wgt>
<wgt id='1495'> +0.0000000e+00 </wgt>
<wgt id='1496'> +0.0000000e+00 </wgt>
<wgt id='1497'> +0.0000000e+00 </wgt>
<wgt id='1498'> +0.0000000e+00 </wgt>
<wgt id='1499'> +0.0000000e+00 </wgt>
<wgt id='1500'> +0.0000000e+00 </wgt>
<wgt id='1501'> +0.0000000e+00 </wgt>
<wgt id='1502'> +0.0000000e+00 </wgt>
<wgt id='1503'> +0.0000000e+00 </wgt>
<wgt id='1504'> +0.0000000e+00 </wgt>
<wgt id='1505'> +0.0000000e+00 </wgt>
<wgt id='1506'> +0.0000000e+00 </wgt>
<wgt id='1507'> +0.0000000e+00 </wgt>
<wgt id='1508'> +0.0000000e+00 </wgt>
<wgt id='1509'> +0.0000000e+00 </wgt>
<wgt id='1510'> +0.0000000e+00 </wgt>
<wgt id='1511'> +0.0000000e+00 </wgt>
<wgt id='1512'> +0.0000000e+00 </wgt>
<wgt id='1513'> +0.0000000e+00 </wgt>
<wgt id='1514'> +0.0000000e+00 </wgt>
<wgt id='1515'> +0.0000000e+00 </wgt>
<wgt id='1516'> +0.0000000e+00 </wgt>
<wgt id='1517'> +0.0000000e+00 </wgt>
<wgt id='1518'> +0.0000000e+00 </wgt>
<wgt id='1519'> +0.0000000e+00 </wgt>
<wgt id='1520'> +0.0000000e+00 </wgt>
<wgt id='1521'> +0.0000000e+00 </wgt>
<wgt id='1522'> +0.0000000e+00 </wgt>
<wgt id='1523'> +0.0000000e+00 </wgt>
<wgt id='1524'> +0.0000000e+00 </wgt>
<wgt id='1525'> +0.0000000e+00 </wgt>
<wgt id='1526'> +0.0000000e+00 </wgt>
<wgt id='1527'> +0.0000000e+00 </wgt>
<wgt id='1528'> +0.0000000e+00 </wgt>
<wgt id='1529'> +0.0000000e+00 </wgt>
<wgt id='1530'> +0.0000000e+00 </wgt>
<wgt id='1531'> +0.0000000e+00 </wgt>
<wgt id='1532'> +0.0000000e+00 </wgt>
<wgt id='1533'> +0.0000000e+00 </wgt>
<wgt id='1534'> +0.0000000e+00 </wgt>
<wgt id='1535'> +0.0000000e+00 </wgt>
<wgt id='1536'> +0.0000000e+00 </wgt>
<wgt id='1537'> +0.0000000e+00 </wgt>
<wgt id='1538'> +0.0000000e+00 </wgt>
<wgt id='1539'> +0.0000000e+00 </wgt>
<wgt id='1540'> +0.0000000e+00 </wgt>
<wgt id='1541'> +0.0000000e+00 </wgt>
<wgt id='1542'> +0.0000000e+00 </wgt>
<wgt id='1543'> +0.0000000e+00 </wgt>
<wgt id='1544'> +0.0000000e+00 </wgt>
<wgt id='1545'> +0.0000000e+00 </wgt>
<wgt id='1546'> +0.0000000e+00 </wgt>
<wgt id='1547'> +0.0000000e+00 </wgt>
<wgt id='1548'> +0.0000000e+00 </wgt>
<wgt id='1549'> +0.0000000e+00 </wgt>
<wgt id='1550'> +0.0000000e+00 </wgt>
<wgt id='1551'> +0.0000000e+00 </wgt>
<wgt id='1552'> +0.0000000e+00 </wgt>
<wgt id='1553'> +0.0000000e+00 </wgt>
<wgt id='1554'> +0.0000000e+00 </wgt>
<wgt id='1555'> +0.0000000e+00 </wgt>
<wgt id='1556'> +0.0000000e+00 </wgt>
<wgt id='1557'> +0.0000000e+00 </wgt>
<wgt id='1558'> +0.0000000e+00 </wgt>
<wgt id='1559'> +0.0000000e+00 </wgt>
<wgt id='1560'> +0.0000000e+00 </wgt>
<wgt id='1561'> +0.0000000e+00 </wgt>
<wgt id='1562'> +0.0000000e+00 </wgt>
<wgt id='1563'> +0.0000000e+00 </wgt>
<wgt id='1564'> +0.0000000e+00 </wgt>
<wgt id='1565'> +0.0000000e+00 </wgt>
<wgt id='1566'> +0.0000000e+00 </wgt>
<wgt id='1567'> +0.0000000e+00 </wgt>
<wgt id='1568'> +0.0000000e+00 </wgt>
<wgt id='1569'> +0.0000000e+00 </wgt>
<wgt id='1570'> +0.0000000e+00 </wgt>
<wgt id='1571'> +0.0000000e+00 </wgt>
<wgt id='1572'> +0.0000000e+00 </wgt>
<wgt id='1573'> +0.0000000e+00 </wgt>
<wgt id='1574'> +0.0000000e+00 </wgt>
<wgt id='1575'> +0.0000000e+00 </wgt>
<wgt id='1576'> +0.0000000e+00 </wgt>
<wgt id='1577'> +0.0000000e+00 </wgt>
<wgt id='1578'> +0.0000000e+00 </wgt>
<wgt id='1579'> +0.0000000e+00 </wgt>
<wgt id='1580'> +0.0000000e+00 </wgt>
<wgt id='1581'> +0.0000000e+00 </wgt>
<wgt id='1582'> +0.0000000e+00 </wgt>
<wgt id='1583'> +0.0000000e+00 </wgt>
<wgt id='1584'> +0.0000000e+00 </wgt>
<wgt id='1585'> +0.0000000e+00 </wgt>
<wgt id='1586'> +0.0000000e+00 </wgt>
<wgt id='1587'> +0.0000000e+00 </wgt>
<wgt id='1588'> +0.0000000e+00 </wgt>
<wgt id='1589'> +0.0000000e+00 </wgt>
<wgt id='1590'> +0.0000000e+00 </wgt>
<wgt id='1591'> +0.0000000e+00 </wgt>
<wgt id='1592'> +0.0000000e+00 </wgt>
<wgt id='1593'> +0.0000000e+00 </wgt>
<wgt id='1594'> +0.0000000e+00 </wgt>
<wgt id='1595'> +0.0000000e+00 </wgt>
<wgt id='1596'> +0.0000000e+00 </wgt>
<wgt id='1597'> +0.0000000e+00 </wgt>
<wgt id='1598'> +0.0000000e+00 </wgt>
<wgt id='1599'> +0.0000000e+00 </wgt>
<wgt id='1600'> +0.0000000e+00 </wgt>
<wgt id='1601'> +0.0000000e+00 </wgt>
<wgt id='1602'> +0.0000000e+00 </wgt>
<wgt id='1603'> +0.0000000e+00 </wgt>
<wgt id='1604'> +0.0000000e+00 </wgt>
<wgt id='1605'> +0.0000000e+00 </wgt>
<wgt id='1606'> +0.0000000e+00 </wgt>
<wgt id='1607'> +0.0000000e+00 </wgt>
<wgt id='1608'> +0.0000000e+00 </wgt>
<wgt id='1609'> +0.0000000e+00 </wgt>
<wgt id='1610'> +0.0000000e+00 </wgt>
<wgt id='1611'> +0.0000000e+00 </wgt>
<wgt id='1612'> +1.5757315e-04 </wgt>
<wgt id='1613'> +1.5750733e-04 </wgt>
<wgt id='1614'> +1.5774846e-04 </wgt>
<wgt id='1615'> +1.5765519e-04 </wgt>
<wgt id='1616'> +1.5755983e-04 </wgt>
<wgt id='1617'> +1.5762191e-04 </wgt>
<wgt id='1618'> +1.5775901e-04 </wgt>
<wgt id='1619'> +1.5756543e-04 </wgt>
<wgt id='1620'> +1.5770272e-04 </wgt>
<wgt id='1621'> +1.5737437e-04 </wgt>
<wgt id='1622'> +1.5784715e-04 </wgt>
<wgt id='1623'> +1.5717018e-04 </wgt>
<wgt id='1624'> +1.5689666e-04 </wgt>
<wgt id='1625'> +1.5695958e-04 </wgt>
<wgt id='1626'> +1.5757160e-04 </wgt>
<wgt id='1627'> +1.5707732e-04 </wgt>
<wgt id='1628'> +1.5770843e-04 </wgt>
<wgt id='1629'> +1.5771293e-04 </wgt>
<wgt id='1630'> +1.5714089e-04 </wgt>
<wgt id='1631'> +1.5770255e-04 </wgt>
<wgt id='1632'> +1.5699439e-04 </wgt>
<wgt id='1633'> +1.5779049e-04 </wgt>
<wgt id='1634'> +1.5732508e-04 </wgt>
<wgt id='1635'> +1.5710684e-04 </wgt>
<wgt id='1636'> +1.5731050e-04 </wgt>
<wgt id='1637'> +1.5740917e-04 </wgt>
<wgt id='1638'> +1.5750593e-04 </wgt>
<wgt id='1639'> +1.5787237e-04 </wgt>
<wgt id='1640'> +1.5763994e-04 </wgt>
<wgt id='1641'> +1.5708483e-04 </wgt>
<wgt id='1642'> +1.5723317e-04 </wgt>
<wgt id='1643'> +1.5757569e-04 </wgt>
<wgt id='1644'> +1.5741035e-04 </wgt>
<wgt id='1645'> +1.5747351e-04 </wgt>
<wgt id='1646'> +1.5801357e-04 </wgt>
<wgt id='1647'> +1.5727407e-04 </wgt>
<wgt id='1648'> +1.5722582e-04 </wgt>
<wgt id='1649'> +1.5793463e-04 </wgt>
<wgt id='1650'> +1.5742829e-04 </wgt>
<wgt id='1651'> +1.5740848e-04 </wgt>
<wgt id='1652'> +1.5744257e-04 </wgt>
<wgt id='1653'> +1.5719533e-04 </wgt>
<wgt id='1654'> +1.5732243e-04 </wgt>
<wgt id='1655'> +1.5794367e-04 </wgt>
<wgt id='1656'> +1.5758405e-04 </wgt>
<wgt id='1657'> +1.5752298e-04 </wgt>
<wgt id='1658'> +1.5790291e-04 </wgt>
<wgt id='1659'> +1.5793567e-04 </wgt>
<wgt id='1660'> +1.5779409e-04 </wgt>
<wgt id='1661'> +1.5768221e-04 </wgt>
<wgt id='1662'> +1.5818280e-04 </wgt>
<wgt id='1663'> +1.5826775e-04 </wgt>
<wgt id='1664'> +1.5770579e-04 </wgt>
<wgt id='1665'> +1.5783843e-04 </wgt>
<wgt id='1666'> +1.5796501e-04 </wgt>
<wgt id='1667'> +1.5778989e-04 </wgt>
<wgt id='1668'> +1.5724286e-04 </wgt>
<wgt id='1669'> +1.5748402e-04 </wgt>
<wgt id='1670'> +1.5768323e-04 </wgt>
<wgt id='1671'> +1.5769451e-04 </wgt>
<wgt id='1672'> +1.5729193e-04 </wgt>
<wgt id='1673'> +1.5766863e-04 </wgt>
<wgt id='1674'> +1.5761538e-04 </wgt>
<wgt id='1675'> +1.5764797e-04 </wgt>
<wgt id='1676'> +1.5729750e-04 </wgt>
<wgt id='1677'> +1.5779058e-04 </wgt>
<wgt id='1678'> +1.5767913e-04 </wgt>
<wgt id='1679'> +1.5792050e-04 </wgt>
<wgt id='1680'> +1.5771590e-04 </wgt>
<wgt id='1681'> +1.5776076e-04 </wgt>
<wgt id='1682'> +1.5740045e-04 </wgt>
<wgt id='1683'> +1.5729472e-04 </wgt>
<wgt id='1684'> +1.5734476e-04 </wgt>
<wgt id='1685'> +1.5713807e-04 </wgt>
<wgt id='1686'> +1.5763511e-04 </wgt>
<wgt id='1687'> +1.5791839e-04 </wgt>
<wgt id='1688'> +1.5768179e-04 </wgt>
<wgt id='1689'> +1.5755934e-04 </wgt>
<wgt id='1690'> +1.5732559e-04 </wgt>
<wgt id='1691'> +1.5774510e-04 </wgt>
<wgt id='1692'> +1.5758137e-04 </wgt>
<wgt id='1693'> +1.5767461e-04 </wgt>
<wgt id='1694'> +1.5780287e-04 </wgt>
<wgt id='1695'> +1.5744056e-04 </wgt>
<wgt id='1696'> +1.5770183e-04 </wgt>
<wgt id='1697'> +1.5750586e-04 </wgt>
<wgt id='1698'> +1.5769433e-04 </wgt>
<wgt id='1699'> +1.5752859e-04 </wgt>
<wgt id='1700'> +1.5787275e-04 </wgt>
<wgt id='1701'> +1.5748937e-04 </wgt>
<wgt id='1702'> +1.5774139e-04 </wgt>
<wgt id='1703'> +1.5755123e-04 </wgt>
<wgt id='1704'> +1.5760028e-04 </wgt>
<wgt id='1705'> +1.5773740e-04 </wgt>
<wgt id='1706'> +1.5756862e-04 </wgt>
<wgt id='1707'> +1.5779013e-04 </wgt>
<wgt id='1708'> +1.5745829e-04 </wgt>
<wgt id='1709'> +1.5763299e-04 </wgt>
<wgt id='1710'> +1.5760643e-04 </wgt>
<wgt id='1711'> +1.5765130e-04 </wgt>
<wgt id='1712'> +1.5749208e-04 </wgt>
<wgt id='1713'> +1.5440427e-04 </wgt>
<wgt id='1714'> +1.6103786e-04 </wgt>
<wgt id='1715'> +0.0000000e+00 </wgt>
<wgt id='1716'> +0.0000000e+00 </wgt>
<wgt id='1717'> +0.0000000e+00 </wgt>
<wgt id='1718'> +0.0000000e+00 </wgt>
<wgt id='1719'> +0.0000000e+00 </wgt>
<wgt id='1720'> +0.0000000e+00 </wgt>
<wgt id='1721'> +0.0000000e+00 </wgt>
<wgt id='1722'> +0.0000000e+00 </wgt>
<wgt id='1723'> +0.0000000e+00 </wgt>
<wgt id='1724'> +0.0000000e+00 </wgt>
<wgt id='1725'> +0.0000000e+00 </wgt>
<wgt id='1726'> +0.0000000e+00 </wgt>
<wgt id='1727'> +0.0000000e+00 </wgt>
<wgt id='1728'> +0.0000000e+00 </wgt>
<wgt id='1729'> +0.0000000e+00 </wgt>
<wgt id='1730'> +0.0000000e+00 </wgt>
<wgt id='1731'> +0.0000000e+00 </wgt>
<wgt id='1732'> +0.0000000e+00 </wgt>
<wgt id='1733'> +0.0000000e+00 </wgt>
<wgt id='1734'> +0.0000000e+00 </wgt>
<wgt id='1735'> +0.0000000e+00 </wgt>
<wgt id='1736'> +0.0000000e+00 </wgt>
<wgt id='1737'> +0.0000000e+00 </wgt>
<wgt id='1738'> +0.0000000e+00 </wgt>
<wgt id='1739'> +0.0000000e+00 </wgt>
<wgt id='1740'> +0.0000000e+00 </wgt>
<wgt id='1741'> +0.0000000e+00 </wgt>
<wgt id='1742'> +0.0000000e+00 </wgt>
<wgt id='1743'> +0.0000000e+00 </wgt>
<wgt id='1744'> +0.0000000e+00 </wgt>
<wgt id='1745'> +0.0000000e+00 </wgt>
<wgt id='1746'> +0.0000000e+00 </wgt>
<wgt id='1747'> +0.0000000e+00 </wgt>
<wgt id='1748'> +0.0000000e+00 </wgt>
<wgt id='1749'> +0.0000000e+00 </wgt>
<wgt id='1750'> +0.0000000e+00 </wgt>
<wgt id='1751'> +0.0000000e+00 </wgt>
<wgt id='1752'> +0.0000000e+00 </wgt>
<wgt id='1753'> +0.0000000e+00 </wgt>
<wgt id='1754'> +0.0000000e+00 </wgt>
<wgt id='1755'> +0.0000000e+00 </wgt>
<wgt id='1756'> +0.0000000e+00 </wgt>
<wgt id='1757'> +0.0000000e+00 </wgt>
<wgt id='1758'> +0.0000000e+00 </wgt>
<wgt id='1759'> +0.0000000e+00 </wgt>
<wgt id='1760'> +0.0000000e+00 </wgt>
<wgt id='1761'> +0.0000000e+00 </wgt>
<wgt id='1762'> +0.0000000e+00 </wgt>
<wgt id='1763'> +0.0000000e+00 </wgt>
<wgt id='1764'> +0.0000000e+00 </wgt>
<wgt id='1765'> +0.0000000e+00 </wgt>
<wgt id='1766'> +0.0000000e+00 </wgt>
<wgt id='1767'> +0.0000000e+00 </wgt>
<wgt id='1768'> +0.0000000e+00 </wgt>
<wgt id='1769'> +0.0000000e+00 </wgt>
<wgt id='1770'> +0.0000000e+00 </wgt>
<wgt id='1771'> +0.0000000e+00 </wgt>
<wgt id='1772'> +0.0000000e+00 </wgt>
<wgt id='1773'> +0.0000000e+00 </wgt>
<wgt id='1774'> +0.0000000e+00 </wgt>
<wgt id='1775'> +0.0000000e+00 </wgt>
<wgt id='1776'> +0.0000000e+00 </wgt>
<wgt id='1777'> +0.0000000e+00 </wgt>
<wgt id='1778'> +0.0000000e+00 </wgt>
<wgt id='1779'> +0.0000000e+00 </wgt>
<wgt id='1780'> +0.0000000e+00 </wgt>
<wgt id='1781'> +0.0000000e+00 </wgt>
<wgt id='1782'> +0.0000000e+00 </wgt>
<wgt id='1783'> +0.0000000e+00 </wgt>
<wgt id='1784'> +0.0000000e+00 </wgt>
<wgt id='1785'> +0.0000000e+00 </wgt>
<wgt id='1786'> +0.0000000e+00 </wgt>
<wgt id='1787'> +0.0000000e+00 </wgt>
<wgt id='1788'> +0.0000000e+00 </wgt>
<wgt id='1789'> +0.0000000e+00 </wgt>
<wgt id='1790'> +0.0000000e+00 </wgt>
<wgt id='1791'> +0.0000000e+00 </wgt>
<wgt id='1792'> +0.0000000e+00 </wgt>
<wgt id='1793'> +0.0000000e+00 </wgt>
<wgt id='1794'> +0.0000000e+00 </wgt>
<wgt id='1795'> +0.0000000e+00 </wgt>
<wgt id='1796'> +0.0000000e+00 </wgt>
<wgt id='1797'> +0.0000000e+00 </wgt>
<wgt id='1798'> +0.0000000e+00 </wgt>
<wgt id='1799'> +0.0000000e+00 </wgt>
<wgt id='1800'> +0.0000000e+00 </wgt>
<wgt id='1801'> +0.0000000e+00 </wgt>
<wgt id='1802'> +0.0000000e+00 </wgt>
<wgt id='1803'> +0.0000000e+00 </wgt>
<wgt id='1804'> +0.0000000e+00 </wgt>
<wgt id='1805'> +0.0000000e+00 </wgt>
<wgt id='1806'> +0.0000000e+00 </wgt>
<wgt id='1807'> +0.0000000e+00 </wgt>
<wgt id='1808'> +0.0000000e+00 </wgt>
<wgt id='1809'> +0.0000000e+00 </wgt>
<wgt id='1810'> +0.0000000e+00 </wgt>
<wgt id='1811'> +0.0000000e+00 </wgt>
<wgt id='1812'> +0.0000000e+00 </wgt>
<wgt id='1813'> +0.0000000e+00 </wgt>
<wgt id='1814'> +0.0000000e+00 </wgt>
<wgt id='1815'> +0.0000000e+00 </wgt>
<wgt id='1816'> +0.0000000e+00 </wgt>
<wgt id='1817'> +0.0000000e+00 </wgt>
<wgt id='1818'> +0.0000000e+00 </wgt>
<wgt id='1819'> +0.0000000e+00 </wgt>
<wgt id='1820'> +0.0000000e+00 </wgt>
<wgt id='1821'> +0.0000000e+00 </wgt>
<wgt id='1822'> +0.0000000e+00 </wgt>
<wgt id='1823'> +0.0000000e+00 </wgt>
<wgt id='1824'> +0.0000000e+00 </wgt>
<wgt id='1825'> +0.0000000e+00 </wgt>
<wgt id='1826'> +0.0000000e+00 </wgt>
<wgt id='1827'> +0.0000000e+00 </wgt>
<wgt id='1828'> +0.0000000e+00 </wgt>
<wgt id='1829'> +0.0000000e+00 </wgt>
<wgt id='1830'> +0.0000000e+00 </wgt>
<wgt id='1831'> +0.0000000e+00 </wgt>
<wgt id='1832'> +0.0000000e+00 </wgt>
<wgt id='1833'> +0.0000000e+00 </wgt>
<wgt id='1834'> +0.0000000e+00 </wgt>
<wgt id='1835'> +0.0000000e+00 </wgt>
<wgt id='1836'> +0.0000000e+00 </wgt>
<wgt id='1837'> +0.0000000e+00 </wgt>
<wgt id='1838'> +0.0000000e+00 </wgt>
<wgt id='1839'> +0.0000000e+00 </wgt>
<wgt id='1840'> +0.0000000e+00 </wgt>
<wgt id='1841'> +0.0000000e+00 </wgt>
<wgt id='1842'> +0.0000000e+00 </wgt>
<wgt id='1843'> +0.0000000e+00 </wgt>
<wgt id='1844'> +0.0000000e+00 </wgt>
<wgt id='1845'> +0.0000000e+00 </wgt>
<wgt id='1846'> +0.0000000e+00 </wgt>
<wgt id='1847'> +0.0000000e+00 </wgt>
<wgt id='1848'> +0.0000000e+00 </wgt>
<wgt id='1849'> +0.0000000e+00 </wgt>
<wgt id='1850'> +0.0000000e+00 </wgt>
<wgt id='1851'> +0.0000000e+00 </wgt>
<wgt id='1852'> +0.0000000e+00 </wgt>
<wgt id='1853'> +0.0000000e+00 </wgt>
<wgt id='1854'> +0.0000000e+00 </wgt>
<wgt id='1855'> +0.0000000e+00 </wgt>
<wgt id='1856'> +0.0000000e+00 </wgt>
<wgt id='1857'> +0.0000000e+00 </wgt>
<wgt id='1858'> +0.0000000e+00 </wgt>
<wgt id='1859'> +0.0000000e+00 </wgt>
<wgt id='1860'> +0.0000000e+00 </wgt>
<wgt id='1861'> +0.0000000e+00 </wgt>
<wgt id='1862'> +0.0000000e+00 </wgt>
<wgt id='1863'> +0.0000000e+00 </wgt>
<wgt id='1864'> +0.0000000e+00 </wgt>
<wgt id='1865'> +0.0000000e+00 </wgt>
<wgt id='1866'> +0.0000000e+00 </wgt>
<wgt id='1867'> +0.0000000e+00 </wgt>
<wgt id='1868'> +0.0000000e+00 </wgt>
<wgt id='1869'> +0.0000000e+00 </wgt>
<wgt id='1870'> +0.0000000e+00 </wgt>
<wgt id='1871'> +0.0000000e+00 </wgt>
<wgt id='1872'> +0.0000000e+00 </wgt>
<wgt id='1873'> +0.0000000e+00 </wgt>
<wgt id='1874'> +0.0000000e+00 </wgt>
<wgt id='1875'> +0.0000000e+00 </wgt>
<wgt id='1876'> +0.0000000e+00 </wgt>
<wgt id='1877'> +0.0000000e+00 </wgt>
<wgt id='1878'> +0.0000000e+00 </wgt>
<wgt id='1879'> +0.0000000e+00 </wgt>
<wgt id='1880'> +0.0000000e+00 </wgt>
<wgt id='1881'> +0.0000000e+00 </wgt>
<wgt id='1882'> +0.0000000e+00 </wgt>
<wgt id='1883'> +0.0000000e+00 </wgt>
<wgt id='1884'> +0.0000000e+00 </wgt>
<wgt id='1885'> +0.0000000e+00 </wgt>
<wgt id='1886'> +0.0000000e+00 </wgt>
<wgt id='1887'> +0.0000000e+00 </wgt>
<wgt id='1888'> +0.0000000e+00 </wgt>
<wgt id='1889'> +0.0000000e+00 </wgt>
<wgt id='1890'> +0.0000000e+00 </wgt>
<wgt id='1891'> +0.0000000e+00 </wgt>
<wgt id='1892'> +0.0000000e+00 </wgt>
<wgt id='1893'> +0.0000000e+00 </wgt>
<wgt id='1894'> +0.0000000e+00 </wgt>
<wgt id='1895'> +0.0000000e+00 </wgt>
<wgt id='1896'> +0.0000000e+00 </wgt>
<wgt id='1897'> +0.0000000e+00 </wgt>
<wgt id='1898'> +0.0000000e+00 </wgt>
<wgt id='1899'> +0.0000000e+00 </wgt>
<wgt id='1900'> +0.0000000e+00 </wgt>
<wgt id='1901'> +0.0000000e+00 </wgt>
<wgt id='1902'> +0.0000000e+00 </wgt>
<wgt id='1903'> +0.0000000e+00 </wgt>
<wgt id='1904'> +0.0000000e+00 </wgt>
<wgt id='1905'> +0.0000000e+00 </wgt>
<wgt id='1906'> +0.0000000e+00 </wgt>
<wgt id='1907'> +0.0000000e+00 </wgt>
<wgt id='1908'> +0.0000000e+00 </wgt>
<wgt id='1909'> +0.0000000e+00 </wgt>
<wgt id='1910'> +0.0000000e+00 </wgt>
<wgt id='1911'> +0.0000000e+00 </wgt>
<wgt id='1912'> +0.0000000e+00 </wgt>
<wgt id='1913'> +0.0000000e+00 </wgt>
<wgt id='1914'> +0.0000000e+00 </wgt>
<wgt id='1915'> +0.0000000e+00 </wgt>
<wgt id='1916'> +0.0000000e+00 </wgt>
<wgt id='1917'> +0.0000000e+00 </wgt>
<wgt id='1918'> +0.0000000e+00 </wgt>
<wgt id='1919'> +0.0000000e+00 </wgt>
<wgt id='1920'> +0.0000000e+00 </wgt>
<wgt id='1921'> +0.0000000e+00 </wgt>
<wgt id='1922'> +0.0000000e+00 </wgt>
<wgt id='1923'> +0.0000000e+00 </wgt>
<wgt id='1924'> +0.0000000e+00 </wgt>
<wgt id='1925'> +0.0000000e+00 </wgt>
<wgt id='1926'> +0.0000000e+00 </wgt>
<wgt id='1927'> +0.0000000e+00 </wgt>
<wgt id='1928'> +0.0000000e+00 </wgt>
<wgt id='1929'> +0.0000000e+00 </wgt>
<wgt id='1930'> +0.0000000e+00 </wgt>
<wgt id='1931'> +0.0000000e+00 </wgt>
<wgt id='1932'> +0.0000000e+00 </wgt>
<wgt id='1933'> +0.0000000e+00 </wgt>
<wgt id='1934'> +0.0000000e+00 </wgt>
<wgt id='1935'> +0.0000000e+00 </wgt>
<wgt id='1936'> +0.0000000e+00 </wgt>
<wgt id='1937'> +0.0000000e+00 </wgt>
<wgt id='1938'> +0.0000000e+00 </wgt>
<wgt id='1939'> +0.0000000e+00 </wgt>
<wgt id='1940'> +0.0000000e+00 </wgt>
<wgt id='1941'> +0.0000000e+00 </wgt>
<wgt id='1942'> +0.0000000e+00 </wgt>
<wgt id='1943'> +0.0000000e+00 </wgt>
<wgt id='1944'> +0.0000000e+00 </wgt>
<wgt id='1945'> +0.0000000e+00 </wgt>
<wgt id='1946'> +0.0000000e+00 </wgt>
<wgt id='1947'> +0.0000000e+00 </wgt>
<wgt id='1948'> +0.0000000e+00 </wgt>
<wgt id='1949'> +0.0000000e+00 </wgt>
<wgt id='1950'> +0.0000000e+00 </wgt>
<wgt id='1951'> +0.0000000e+00 </wgt>
<wgt id='1952'> +0.0000000e+00 </wgt>
<wgt id='1953'> +0.0000000e+00 </wgt>
<wgt id='1954'> +0.0000000e+00 </wgt>
<wgt id='1955'> +0.0000000e+00 </wgt>
<wgt id='1956'> +0.0000000e+00 </wgt>
<wgt id='1957'> +0.0000000e+00 </wgt>
<wgt id='1958'> +0.0000000e+00 </wgt>
<wgt id='1959'> +0.0000000e+00 </wgt>
<wgt id='1960'> +0.0000000e+00 </wgt>
<wgt id='1961'> +0.0000000e+00 </wgt>
<wgt id='1962'> +0.0000000e+00 </wgt>
<wgt id='1963'> +0.0000000e+00 </wgt>
<wgt id='1964'> +0.0000000e+00 </wgt>
<wgt id='1965'> +0.0000000e+00 </wgt>
<wgt id='1966'> +0.0000000e+00 </wgt>
<wgt id='1967'> +0.0000000e+00 </wgt>
<wgt id='1968'> +0.0000000e+00 </wgt>
<wgt id='1969'> +0.0000000e+00 </wgt>
<wgt id='1970'> +0.0000000e+00 </wgt>
<wgt id='1971'> +0.0000000e+00 </wgt>
<wgt id='1972'> +0.0000000e+00 </wgt>
<wgt id='1973'> +0.0000000e+00 </wgt>
<wgt id='1974'> +0.0000000e+00 </wgt>
<wgt id='1975'> +0.0000000e+00 </wgt>
<wgt id='1976'> +0.0000000e+00 </wgt>
<wgt id='1977'> +0.0000000e+00 </wgt>
<wgt id='1978'> +0.0000000e+00 </wgt>
<wgt id='1979'> +0.0000000e+00 </wgt>
<wgt id='1980'> +0.0000000e+00 </wgt>
<wgt id='1981'> +0.0000000e+00 </wgt>
<wgt id='1982'> +0.0000000e+00 </wgt>
<wgt id='1983'> +0.0000000e+00 </wgt>
<wgt id='1984'> +0.0000000e+00 </wgt>
<wgt id='1985'> +0.0000000e+00 </wgt>
<wgt id='1986'> +0.0000000e+00 </wgt>
<wgt id='1987'> +0.0000000e+00 </wgt>
<wgt id='1988'> +0.0000000e+00 </wgt>
<wgt id='1989'> +0.0000000e+00 </wgt>
<wgt id='1990'> +0.0000000e+00 </wgt>
<wgt id='1991'> +0.0000000e+00 </wgt>
<wgt id='1992'> +0.0000000e+00 </wgt>
<wgt id='1993'> +0.0000000e+00 </wgt>
<wgt id='1994'> +0.0000000e+00 </wgt>
<wgt id='1995'> +0.0000000e+00 </wgt>
<wgt id='1996'> +0.0000000e+00 </wgt>
<wgt id='1997'> +0.0000000e+00 </wgt>
<wgt id='1998'> +0.0000000e+00 </wgt>
<wgt id='1999'> +0.0000000e+00 </wgt>
<wgt id='2000'> +0.0000000e+00 </wgt>
<wgt id='2001'> +0.0000000e+00 </wgt>
<wgt id='2002'> +0.0000000e+00 </wgt>
<wgt id='2003'> +0.0000000e+00 </wgt>
<wgt id='2004'> +0.0000000e+00 </wgt>
<wgt id='2005'> +0.0000000e+00 </wgt>
<wgt id='2006'> +0.0000000e+00 </wgt>
<wgt id='2007'> +0.0000000e+00 </wgt>
<wgt id='2008'> +0.0000000e+00 </wgt>
<wgt id='2009'> +0.0000000e+00 </wgt>
<wgt id='2010'> +0.0000000e+00 </wgt>
<wgt id='2011'> +0.0000000e+00 </wgt>
<wgt id='2012'> +0.0000000e+00 </wgt>
<wgt id='2013'> +0.0000000e+00 </wgt>
<wgt id='2014'> +0.0000000e+00 </wgt>
<wgt id='2015'> +0.0000000e+00 </wgt>
<wgt id='2016'> +0.0000000e+00 </wgt>
<wgt id='2017'> +0.0000000e+00 </wgt>
<wgt id='2018'> +0.0000000e+00 </wgt>
<wgt id='2019'> +0.0000000e+00 </wgt>
<wgt id='2020'> +0.0000000e+00 </wgt>
<wgt id='2021'> +0.0000000e+00 </wgt>
<wgt id='2022'> +0.0000000e+00 </wgt>
</rwgt>
</event>
<event>
14      1 +1.5732536e-04 6.78505500e+02 7.81860800e-03 1.03534900e-01
        1 -1    0    0  501    0 +0.0000000000e+00 +0.0000000000e+00 +1.7754428225e+03 1.7754428225e+03 5.0400000000e-03 0.0000e+00 -1.0000e+00
        5 -1    0    0  502    0 +0.0000000000e+00 +0.0000000000e+00 -7.2716639465e+02 7.2718158358e+02 4.7000000000e+00 0.0000e+00 -1.0000e+00
        1  1    1    2  501    0 -2.4649622743e+01 +7.4911922187e+01 +8.3838567412e+02 8.4208665740e+02 5.0400000000e-03 0.0000e+00 -1.0000e+00
      -24  2    1    2    0    0 -3.1440298487e+02 +5.2224985106e+02 +4.9181170812e+02 7.8737305374e+02 8.0519722317e+01 0.0000e+00 0.0000e+00
        1  1    4    4  503    0 -2.5446363960e+02 +4.1169185658e+02 +4.2923422613e+02 6.4690335411e+02 5.0400000000e-03 0.0000e+00 -1.0000e+00
       -2  1    4    4    0  503 -5.9939345265e+01 +1.1055799448e+02 +6.2577481994e+01 1.4046969963e+02 2.5500000000e-03 0.0000e+00 1.0000e+00
       23  2    1    2    0    0 -2.3148156278e+01 -3.0584500180e+01 +4.6991915670e+01 1.0509762418e+02 8.5825530461e+01 0.0000e+00 0.0000e+00
        3  1    7    7  504    0 +9.5767777593e+00 -4.7408262202e+01 +4.8198508883e+01 6.8281508894e+01 1.0100000000e-01 0.0000e+00 -1.0000e+00
       -3  1    7    7    0  504 -3.2724934037e+01 +1.6823762023e+01 -1.2065932130e+00 3.6816115283e+01 1.0100000000e-01 0.0000e+00 1.0000e+00
        6  2    1    2  502    0 +3.6220076389e+02 -5.6657727307e+02 -3.2891287006e+02 7.6806707077e+02 1.7188411616e+02 0.0000e+00 0.0000e+00
        5  1   10   10  502    0 +2.2588070370e+02 -3.2311360356e+02 -2.5151416926e+02 4.6766009072e+02 4.7000000000e+00 0.0000e+00 -1.0000e+00
       24  2   10   10    0    0 +1.3632006018e+02 -2.4346366951e+02 -7.7398700796e+01 3.0040698006e+02 7.9975481237e+01 0.0000e+00 0.0000e+00
       14  1   12   12    0    0 +9.1814167314e+01 -1.0258375516e+02 -1.0048562702e+01 1.3803710282e+02 0.0000000000e+00 0.0000e+00 -1.0000e+00
      -13  1   12   12    0    0 +4.4505892871e+01 -1.4087991435e+02 -6.7350138094e+01 1.6236987723e+02 1.0566000000e-01 0.0000e+00 1.0000e+00
<mgrwt>
<rscale>  0 0.23057422e+03</rscale>
<asrwt>0</asrwt>
<pdfrwt beam="1">  1        1 0.25363469e+00 0.78355253e+02</pdfrwt>
<pdfrwt beam="2">  1        5 0.10388244e+00 0.67850554e+03</pdfrwt>
<totfact> 0.13289556e+00</totfact>
</mgrwt>
<rwgt>
<wgt id='1001'> +1.5732536e-04 </wgt>
<wgt id='1002'> +1.2224941e-04 </wgt>
<wgt id='1003'> +1.2224937e-04 </wgt>
<wgt id='1004'> +1.2715709e-04 </wgt>
<wgt id='1005'> +1.1893838e-04 </wgt>
<wgt id='1006'> +1.5732536e-04 </wgt>
<wgt id='1007'> +1.2224941e-04 </wgt>
<wgt id='1008'> +1.2224937e-04 </wgt>
<wgt id='1009'> +1.2715709e-04 </wgt>
<wgt id='1010'> +1.1893838e-04 </wgt>
<wgt id='1011'> +1.5732536e-04 </wgt>
<wgt id='1012'> +1.2224941e-04 </wgt>
<wgt id='1013'> +1.2224937e-04 </wgt>
<wgt id='1014'> +1.2715709e-04 </wgt>
<wgt id='1015'> +1.1893838e-04 </wgt>
<wgt id='1016'> +1.4898420e-04 </wgt>
<wgt id='1017'> +1.1708807e-04 </wgt>
<wgt id='1018'> +1.1708803e-04 </wgt>
<wgt id='1019'> +1.2224937e-04 </wgt>
<wgt id='1020'> +1.1377536e-04 </wgt>
<wgt id='1021'> +1.4898420e-04 </wgt>
<wgt id='1022'> +1.1708807e-04 </wgt>
<wgt id='1023'> +1.1708803e-04 </wgt>
<wgt id='1024'> +1.2224937e-04 </wgt>
<wgt id='1025'> +1.1377536e-04 </wgt>
<wgt id='1026'> +1.4898420e-04 </wgt>
<wgt id='1027'> +1.1708807e-04 </wgt>
<wgt id='1028'> +1.1708803e-04 </wgt>
<wgt id='1029'> +1.2224937e-04 </wgt>
<wgt id='1030'> +1.1377536e-04 </wgt>
<wgt id='1031'> +1.6563211e-04 </wgt>
<wgt id='1032'> +1.2715713e-04 </wgt>
<wgt id='1033'> +1.2715709e-04 </wgt>
<wgt id='1034'> +1.3152449e-04 </wgt>
<wgt id='1035'> +1.2403366e-04 </wgt>
<wgt id='1036'> +1.6563211e-04 </wgt>
<wgt id='1037'> +1.2715713e-04 </wgt>
<wgt id='1038'> +1.2715709e-04 </wgt>
<wgt id='1039'> +1.3152449e-04 </wgt>
<wgt id='1040'> +1.2403366e-04 </wgt>
<wgt id='1041'> +1.6563211e-04 </wgt>
<wgt id='1042'> +1.2715713e-04 </wgt>
<wgt id='1043'> +1.2715709e-04 </wgt>
<wgt id='1044'> +1.3152449e-04 </wgt>
<wgt id='1045'> +1.2403366e-04 </wgt>
<wgt id='1046'> +1.5732536e-04 </wgt>
<wgt id='1047'> +1.5732536e-04 </wgt>
<wgt id='1048'> +0.0000000e+00 </wgt>
<wgt id='1049'> +0.0000000e+00 </wgt>
<wgt id='1050'> +0.0000000e+00 </wgt>
<wgt id='1051'> +0.0000000e+00 </wgt>
<wgt id='1052'> +0.0000000e+00 </wgt>
<wgt id='1053'> +0.0000000e+00 </wgt>
<wgt id='1054'> +0.0000000e+00 </wgt>
<wgt id='1055'> +0.0000000e+00 </wgt>
<wgt id='1056'> +0.0000000e+00 </wgt>
<wgt id='1057'> +0.0000000e+00 </wgt>
<wgt id='1058'> +0.0000000e+00 </wgt>
<wgt id='1059'> +0.0000000e+00 </wgt>
<wgt id='1060'> +0.0000000e+00 </wgt>
<wgt id='1061'> +0.0000000e+00 </wgt>
<wgt id='1062'> +0.0000000e+00 </wgt>
<wgt id='1063'> +0.0000000e+00 </wgt>
<wgt id='1064'> +0.0000000e+00 </wgt>
<wgt id='1065'> +0.0000000e+00 </wgt>
<wgt id='1066'> +0.0000000e+00 </wgt>
<wgt id='1067'> +0.0000000e+00 </wgt>
<wgt id='1068'> +0.0000000e+00 </wgt>
<wgt id='1069'> +0.0000000e+00 </wgt>
<wgt id='1070'> +0.0000000e+00 </wgt>
<wgt id='1071'> +0.0000000e+00 </wgt>
<wgt id='1072'> +0.0000000e+00 </wgt>
<wgt id='1073'> +0.0000000e+00 </wgt>
<wgt id='1074'> +0.0000000e+00 </wgt>
<wgt id='1075'> +0.0000000e+00 </wgt>
<wgt id='1076'> +0.0000000e+00 </wgt>
<wgt id='1077'> +0.0000000e+00 </wgt>
<wgt id='1078'> +0.0000000e+00 </wgt>
<wgt id='1079'> +0.0000000e+00 </wgt>
<wgt id='1080'> +0.0000000e+00 </wgt>
<wgt id='1081'> +0.0000000e+00 </wgt>
<wgt id='1082'> +0.0000000e+00 </wgt>
<wgt id='1083'> +0.0000000e+00 </wgt>
<wgt id='1084'> +0.0000000e+00 </wgt>
<wgt id='1085'> +0.0000000e+00 </wgt>
<wgt id='1086'> +0.0000000e+00 </wgt>
<wgt id='1087'> +0.0000000e+00 </wgt>
<wgt id='1088'> +0.0000000e+00 </wgt>
<wgt id='1089'> +0.0000000e+00 </wgt>
<wgt id='1090'> +0.0000000e+00 </wgt>
<wgt id='1091'> +0.0000000e+00 </wgt>
<wgt id='1092'> +0.0000000e+00 </wgt>
<wgt id='1093'> +0.0000000e+00 </wgt>
<wgt id='1094'> +0.0000000e+00 </wgt>
<wgt id='1095'> +0.0000000e+00 </wgt>
<wgt id='1096'> +0.0000000e+00 </wgt>
<wgt id='1097'> +0.0000000e+00 </wgt>
<wgt id='1098'> +0.0000000e+00 </wgt>
<wgt id='1099'> +0.0000000e+00 </wgt>
<wgt id='1100'> +0.0000000e+00 </wgt>
<wgt id='1101'> +0.0000000e+00 </wgt>
<wgt id='1102'> +0.0000000e+00 </wgt>
<wgt id='1103'> +0.0000000e+00 </wgt>
<wgt id='1104'> +0.0000000e+00 </wgt>
<wgt id='1105'> +0.0000000e+00 </wgt>
<wgt id='1106'> +0.0000000e+00 </wgt>
<wgt id='1107'> +0.0000000e+00 </wgt>
<wgt id='1108'> +0.0000000e+00 </wgt>
<wgt id='1109'> +0.0000000e+00 </wgt>
<wgt id='1110'> +0.0000000e+00 </wgt>
<wgt id='1111'> +0.0000000e+00 </wgt>
<wgt id='1112'> +0.0000000e+00 </wgt>
<wgt id='1113'> +0.0000000e+00 </wgt>
<wgt id='1114'> +0.0000000e+00 </wgt>
<wgt id='1115'> +0.0000000e+00 </wgt>
<wgt id='1116'> +0.0000000e+00 </wgt>
<wgt id='1117'> +0.0000000e+00 </wgt>
<wgt id='1118'> +0.0000000e+00 </wgt>
<wgt id='1119'> +0.0000000e+00 </wgt>
<wgt id='1120'> +0.0000000e+00 </wgt>
<wgt id='1121'> +0.0000000e+00 </wgt>
<wgt id='1122'> +0.0000000e+00 </wgt>
<wgt id='1123'> +0.0000000e+00 </wgt>
<wgt id='1124'> +0.0000000e+00 </wgt>
<wgt id='1125'> +0.0000000e+00 </wgt>
<wgt id='1126'> +0.0000000e+00 </wgt>
<wgt id='1127'> +0.0000000e+00 </wgt>
<wgt id='1128'> +0.0000000e+00 </wgt>
<wgt id='1129'> +0.0000000e+00 </wgt>
<wgt id='1130'> +0.0000000e+00 </wgt>
<wgt id='1131'> +0.0000000e+00 </wgt>
<wgt id='1132'> +0.0000000e+00 </wgt>
<wgt id='1133'> +0.0000000e+00 </wgt>
<wgt id='1134'> +0.0000000e+00 </wgt>
<wgt id='1135'> +0.0000000e+00 </wgt>
<wgt id='1136'> +0.0000000e+00 </wgt>
<wgt id='1137'> +0.0000000e+00 </wgt>
<wgt id='1138'> +0.0000000e+00 </wgt>
<wgt id='1139'> +0.0000000e+00 </wgt>
<wgt id='1140'> +0.0000000e+00 </wgt>
<wgt id='1141'> +0.0000000e+00 </wgt>
<wgt id='1142'> +0.0000000e+00 </wgt>
<wgt id='1143'> +0.0000000e+00 </wgt>
<wgt id='1144'> +0.0000000e+00 </wgt>
<wgt id='1145'> +0.0000000e+00 </wgt>
<wgt id='1146'> +0.0000000e+00 </wgt>
<wgt id='1147'> +0.0000000e+00 </wgt>
<wgt id='1148'> +0.0000000e+00 </wgt>
<wgt id='1149'> +0.0000000e+00 </wgt>
<wgt id='1150'> +0.0000000e+00 </wgt>
<wgt id='1151'> +0.0000000e+00 </wgt>
<wgt id='1152'> +0.0000000e+00 </wgt>
<wgt id='1153'> +0.0000000e+00 </wgt>
<wgt id='1154'> +0.0000000e+00 </wgt>
<wgt id='1155'> +0.0000000e+00 </wgt>
<wgt id='1156'> +0.0000000e+00 </wgt>
<wgt id='1157'> +0.0000000e+00 </wgt>
<wgt id='1158'> +0.0000000e+00 </wgt>
<wgt id='1159'> +0.0000000e+00 </wgt>
<wgt id='1160'> +0.0000000e+00 </wgt>
<wgt id='1161'> +0.0000000e+00 </wgt>
<wgt id='1162'> +0.0000000e+00 </wgt>
<wgt id='1163'> +0.0000000e+00 </wgt>
<wgt id='1164'> +0.0000000e+00 </wgt>
<wgt id='1165'> +0.0000000e+00 </wgt>
<wgt id='1166'> +0.0000000e+00 </wgt>
<wgt id='1167'> +0.0000000e+00 </wgt>
<wgt id='1168'> +0.0000000e+00 </wgt>
<wgt id='1169'> +0.0000000e+00 </wgt>
<wgt id='1170'> +0.0000000e+00 </wgt>
<wgt id='1171'> +0.0000000e+00 </wgt>
<wgt id='1172'> +0.0000000e+00 </wgt>
<wgt id='1173'> +0.0000000e+00 </wgt>
<wgt id='1174'> +0.0000000e+00 </wgt>
<wgt id='1175'> +0.0000000e+00 </wgt>
<wgt id='1176'> +0.0000000e+00 </wgt>
<wgt id='1177'> +0.0000000e+00 </wgt>
<wgt id='1178'> +0.0000000e+00 </wgt>
<wgt id='1179'> +0.0000000e+00 </wgt>
<wgt id='1180'> +0.0000000e+00 </wgt>
<wgt id='1181'> +0.0000000e+00 </wgt>
<wgt id='1182'> +0.0000000e+00 </wgt>
<wgt id='1183'> +0.0000000e+00 </wgt>
<wgt id='1184'> +0.0000000e+00 </wgt>
<wgt id='1185'> +0.0000000e+00 </wgt>
<wgt id='1186'> +0.0000000e+00 </wgt>
<wgt id='1187'> +0.0000000e+00 </wgt>
<wgt id='1188'> +0.0000000e+00 </wgt>
<wgt id='1189'> +0.0000000e+00 </wgt>
<wgt id='1190'> +0.0000000e+00 </wgt>
<wgt id='1191'> +0.0000000e+00 </wgt>
<wgt id='1192'> +0.0000000e+00 </wgt>
<wgt id='1193'> +0.0000000e+00 </wgt>
<wgt id='1194'> +0.0000000e+00 </wgt>
<wgt id='1195'> +0.0000000e+00 </wgt>
<wgt id='1196'> +0.0000000e+00 </wgt>
<wgt id='1197'> +0.0000000e+00 </wgt>
<wgt id='1198'> +0.0000000e+00 </wgt>
<wgt id='1199'> +0.0000000e+00 </wgt>
<wgt id='1200'> +0.0000000e+00 </wgt>
<wgt id='1201'> +0.0000000e+00 </wgt>
<wgt id='1202'> +0.0000000e+00 </wgt>
<wgt id='1203'> +0.0000000e+00 </wgt>
<wgt id='1204'> +0.0000000e+00 </wgt>
<wgt id='1205'> +0.0000000e+00 </wgt>
<wgt id='1206'> +0.0000000e+00 </wgt>
<wgt id='1207'> +0.0000000e+00 </wgt>
<wgt id='1208'> +0.0000000e+00 </wgt>
<wgt id='1209'> +0.0000000e+00 </wgt>
<wgt id='1210'> +0.0000000e+00 </wgt>
<wgt id='1211'> +0.0000000e+00 </wgt>
<wgt id='1212'> +0.0000000e+00 </wgt>
<wgt id='1213'> +0.0000000e+00 </wgt>
<wgt id='1214'> +0.0000000e+00 </wgt>
<wgt id='1215'> +0.0000000e+00 </wgt>
<wgt id='1216'> +0.0000000e+00 </wgt>
<wgt id='1217'> +0.0000000e+00 </wgt>
<wgt id='1218'> +0.0000000e+00 </wgt>
<wgt id='1219'> +0.0000000e+00 </wgt>
<wgt id='1220'> +0.0000000e+00 </wgt>
<wgt id='1221'> +0.0000000e+00 </wgt>
<wgt id='1222'> +0.0000000e+00 </wgt>
<wgt id='1223'> +0.0000000e+00 </wgt>
<wgt id='1224'> +0.0000000e+00 </wgt>
<wgt id='1225'> +0.0000000e+00 </wgt>
<wgt id='1226'> +0.0000000e+00 </wgt>
<wgt id='1227'> +0.0000000e+00 </wgt>
<wgt id='1228'> +0.0000000e+00 </wgt>
<wgt id='1229'> +0.0000000e+00 </wgt>
<wgt id='1230'> +0.0000000e+00 </wgt>
<wgt id='1231'> +0.0000000e+00 </wgt>
<wgt id='1232'> +0.0000000e+00 </wgt>
<wgt id='1233'> +0.0000000e+00 </wgt>
<wgt id='1234'> +0.0000000e+00 </wgt>
<wgt id='1235'> +0.0000000e+00 </wgt>
<wgt id='1236'> +0.0000000e+00 </wgt>
<wgt id='1237'> +0.0000000e+00 </wgt>
<wgt id='1238'> +0.0000000e+00 </wgt>
<wgt id='1239'> +0.0000000e+00 </wgt>
<wgt id='1240'> +0.0000000e+00 </wgt>
<wgt id='1241'> +0.0000000e+00 </wgt>
<wgt id='1242'> +0.0000000e+00 </wgt>
<wgt id='1243'> +0.0000000e+00 </wgt>
<wgt id='1244'> +0.0000000e+00 </wgt>
<wgt id='1245'> +0.0000000e+00 </wgt>
<wgt id='1246'> +0.0000000e+00 </wgt>
<wgt id='1247'> +0.0000000e+00 </wgt>
<wgt id='1248'> +0.0000000e+00 </wgt>
<wgt id='1249'> +0.0000000e+00 </wgt>
<wgt id='1250'> +0.0000000e+00 </wgt>
<wgt id='1251'> +0.0000000e+00 </wgt>
<wgt id='1252'> +0.0000000e+00 </wgt>
<wgt id='1253'> +0.0000000e+00 </wgt>
<wgt id='1254'> +0.0000000e+00 </wgt>
<wgt id='1255'> +0.0000000e+00 </wgt>
<wgt id='1256'> +0.0000000e+00 </wgt>
<wgt id='1257'> +0.0000000e+00 </wgt>
<wgt id='1258'> +0.0000000e+00 </wgt>
<wgt id='1259'> +0.0000000e+00 </wgt>
<wgt id='1260'> +0.0000000e+00 </wgt>
<wgt id='1261'> +0.0000000e+00 </wgt>
<wgt id='1262'> +0.0000000e+00 </wgt>
<wgt id='1263'> +0.0000000e+00 </wgt>
<wgt id='1264'> +0.0000000e+00 </wgt>
<wgt id='1265'> +0.0000000e+00 </wgt>
<wgt id='1266'> +0.0000000e+00 </wgt>
<wgt id='1267'> +0.0000000e+00 </wgt>
<wgt id='1268'> +0.0000000e+00 </wgt>
<wgt id='1269'> +0.0000000e+00 </wgt>
<wgt id='1270'> +0.0000000e+00 </wgt>
<wgt id='1271'> +0.0000000e+00 </wgt>
<wgt id='1272'> +0.0000000e+00 </wgt>
<wgt id='1273'> +0.0000000e+00 </wgt>
<wgt id='1274'> +0.0000000e+00 </wgt>
<wgt id='1275'> +0.0000000e+00 </wgt>
<wgt id='1276'> +0.0000000e+00 </wgt>
<wgt id='1277'> +0.0000000e+00 </wgt>
<wgt id='1278'> +0.0000000e+00 </wgt>
<wgt id='1279'> +0.0000000e+00 </wgt>
<wgt id='1280'> +0.0000000e+00 </wgt>
<wgt id='1281'> +0.0000000e+00 </wgt>
<wgt id='1282'> +0.0000000e+00 </wgt>
<wgt id='1283'> +0.0000000e+00 </wgt>
<wgt id='1284'> +0.0000000e+00 </wgt>
<wgt id='1285'> +0.0000000e+00 </wgt>
<wgt id='1286'> +0.0000000e+00 </wgt>
<wgt id='1287'> +0.0000000e+00 </wgt>
<wgt id='1288'> +0.0000000e+00 </wgt>
<wgt id='1289'> +0.0000000e+00 </wgt>
<wgt id='1290'> +0.0000000e+00 </wgt>
<wgt id='1291'> +0.0000000e+00 </wgt>
<wgt id='1292'> +0.0000000e+00 </wgt>
<wgt id='1293'> +0.0000000e+00 </wgt>
<wgt id='1294'> +0.0000000e+00 </wgt>
<wgt id='1295'> +0.0000000e+00 </wgt>
<wgt id='1296'> +0.0000000e+00 </wgt>
<wgt id='1297'> +0.0000000e+00 </wgt>
<wgt id='1298'> +0.0000000e+00 </wgt>
<wgt id='1299'> +0.0000000e+00 </wgt>
<wgt id='1300'> +0.0000000e+00 </wgt>
<wgt id='1301'> +0.0000000e+00 </wgt>
<wgt id='1302'> +0.0000000e+00 </wgt>
<wgt id='1303'> +0.0000000e+00 </wgt>
<wgt id='1304'> +0.0000000e+00 </wgt>
<wgt id='1305'> +0.0000000e+00 </wgt>
<wgt id='1306'> +0.0000000e+00 </wgt>
<wgt id='1307'> +0.0000000e+00 </wgt>
<wgt id='1308'> +0.0000000e+00 </wgt>
<wgt id='1309'> +0.0000000e+00 </wgt>
<wgt id='1310'> +0.0000000e+00 </wgt>
<wgt id='1311'> +0.0000000e+00 </wgt>
<wgt id='1312'> +0.0000000e+00 </wgt>
<wgt id='1313'> +0.0000000e+00 </wgt>
<wgt id='1314'> +0.0000000e+00 </wgt>
<wgt id='1315'> +0.0000000e+00 </wgt>
<wgt id='1316'> +0.0000000e+00 </wgt>
<wgt id='1317'> +0.0000000e+00 </wgt>
<wgt id='1318'> +0.0000000e+00 </wgt>
<wgt id='1319'> +0.0000000e+00 </wgt>
<wgt id='1320'> +0.0000000e+00 </wgt>
<wgt id='1321'> +0.0000000e+00 </wgt>
<wgt id='1322'> +0.0000000e+00 </wgt>
<wgt id='1323'> +0.0000000e+00 </wgt>
<wgt id='1324'> +0.0000000e+00 </wgt>
<wgt id='1325'> +0.0000000e+00 </wgt>
<wgt id='1326'> +0.0000000e+00 </wgt>
<wgt id='1327'> +0.0000000e+00 </wgt>
<wgt id='1328'> +0.0000000e+00 </wgt>
<wgt id='1329'> +0.0000000e+00 </wgt>
<wgt id='1330'> +0.0000000e+00 </wgt>
<wgt id='1331'> +0.0000000e+00 </wgt>
<wgt id='1332'> +0.0000000e+00 </wgt>
<wgt id='1333'> +0.0000000e+00 </wgt>
<wgt id='1334'> +0.0000000e+00 </wgt>
<wgt id='1335'> +0.0000000e+00 </wgt>
<wgt id='1336'> +0.0000000e+00 </wgt>
<wgt id='1337'> +0.0000000e+00 </wgt>
<wgt id='1338'> +0.0000000e+00 </wgt>
<wgt id='1339'> +0.0000000e+00 </wgt>
<wgt id='1340'> +0.0000000e+00 </wgt>
<wgt id='1341'> +0.0000000e+00 </wgt>
<wgt id='1342'> +0.0000000e+00 </wgt>
<wgt id='1343'> +0.0000000e+00 </wgt>
<wgt id='1344'> +0.0000000e+00 </wgt>
<wgt id='1345'> +0.0000000e+00 </wgt>
<wgt id='1346'> +0.0000000e+00 </wgt>
<wgt id='1347'> +0.0000000e+00 </wgt>
<wgt id='1348'> +0.0000000e+00 </wgt>
<wgt id='1349'> +0.0000000e+00 </wgt>
<wgt id='1350'> +0.0000000e+00 </wgt>
<wgt id='1351'> +0.0000000e+00 </wgt>
<wgt id='1352'> +0.0000000e+00 </wgt>
<wgt id='1353'> +0.0000000e+00 </wgt>
<wgt id='1354'> +0.0000000e+00 </wgt>
<wgt id='1355'> +0.0000000e+00 </wgt>
<wgt id='1356'> +0.0000000e+00 </wgt>
<wgt id='1357'> +0.0000000e+00 </wgt>
<wgt id='1358'> +0.0000000e+00 </wgt>
<wgt id='1359'> +0.0000000e+00 </wgt>
<wgt id='1360'> +0.0000000e+00 </wgt>
<wgt id='1361'> +0.0000000e+00 </wgt>
<wgt id='1362'> +0.0000000e+00 </wgt>
<wgt id='1363'> +0.0000000e+00 </wgt>
<wgt id='1364'> +0.0000000e+00 </wgt>
<wgt id='1365'> +0.0000000e+00 </wgt>
<wgt id='1366'> +0.0000000e+00 </wgt>
<wgt id='1367'> +0.0000000e+00 </wgt>
<wgt id='1368'> +0.0000000e+00 </wgt>
<wgt id='1369'> +0.0000000e+00 </wgt>
<wgt id='1370'> +0.0000000e+00 </wgt>
<wgt id='1371'> +0.0000000e+00 </wgt>
<wgt id='1372'> +0.0000000e+00 </wgt>
<wgt id='1373'> +0.0000000e+00 </wgt>
<wgt id='1374'> +0.0000000e+00 </wgt>
<wgt id='1375'> +0.0000000e+00 </wgt>
<wgt id='1376'> +0.0000000e+00 </wgt>
<wgt id='1377'> +0.0000000e+00 </wgt>
<wgt id='1378'> +0.0000000e+00 </wgt>
<wgt id='1379'> +0.0000000e+00 </wgt>
<wgt id='1380'> +0.0000000e+00 </wgt>
<wgt id='1381'> +0.0000000e+00 </wgt>
<wgt id='1382'> +0.0000000e+00 </wgt>
<wgt id='1383'> +0.0000000e+00 </wgt>
<wgt id='1384'> +0.0000000e+00 </wgt>
<wgt id='1385'> +0.0000000e+00 </wgt>
<wgt id='1386'> +0.0000000e+00 </wgt>
<wgt id='1387'> +0.0000000e+00 </wgt>
<wgt id='1388'> +0.0000000e+00 </wgt>
<wgt id='1389'> +0.0000000e+00 </wgt>
<wgt id='1390'> +0.0000000e+00 </wgt>
<wgt id='1391'> +0.0000000e+00 </wgt>
<wgt id='1392'> +0.0000000e+00 </wgt>
<wgt id='1393'> +0.0000000e+00 </wgt>
<wgt id='1394'> +0.0000000e+00 </wgt>
<wgt id='1395'> +0.0000000e+00 </wgt>
<wgt id='1396'> +0.0000000e+00 </wgt>
<wgt id='1397'> +0.0000000e+00 </wgt>
<wgt id='1398'> +0.0000000e+00 </wgt>
<wgt id='1399'> +0.0000000e+00 </wgt>
<wgt id='1400'> +0.0000000e+00 </wgt>
<wgt id='1401'> +0.0000000e+00 </wgt>
<wgt id='1402'> +0.0000000e+00 </wgt>
<wgt id='1403'> +0.0000000e+00 </wgt>
<wgt id='1404'> +0.0000000e+00 </wgt>
<wgt id='1405'> +0.0000000e+00 </wgt>
<wgt id='1406'> +0.0000000e+00 </wgt>
<wgt id='1407'> +0.0000000e+00 </wgt>
<wgt id='1408'> +0.0000000e+00 </wgt>
<wgt id='1409'> +0.0000000e+00 </wgt>
<wgt id='1410'> +0.0000000e+00 </wgt>
<wgt id='1411'> +0.0000000e+00 </wgt>
<wgt id='1412'> +0.0000000e+00 </wgt>
<wgt id='1413'> +0.0000000e+00 </wgt>
<wgt id='1414'> +0.0000000e+00 </wgt>
<wgt id='1415'> +0.0000000e+00 </wgt>
<wgt id='1416'> +0.0000000e+00 </wgt>
<wgt id='1417'> +0.0000000e+00 </wgt>
<wgt id='1418'> +0.0000000e+00 </wgt>
<wgt id='1419'> +0.0000000e+00 </wgt>
<wgt id='1420'> +0.0000000e+00 </wgt>
<wgt id='1421'> +0.0000000e+00 </wgt>
<wgt id='1422'> +0.0000000e+00 </wgt>
<wgt id='1423'> +0.0000000e+00 </wgt>
<wgt id='1424'> +0.0000000e+00 </wgt>
<wgt id='1425'> +0.0000000e+00 </wgt>
<wgt id='1426'> +0.0000000e+00 </wgt>
<wgt id='1427'> +0.0000000e+00 </wgt>
<wgt id='1428'> +0.0000000e+00 </wgt>
<wgt id='1429'> +0.0000000e+00 </wgt>
<wgt id='1430'> +0.0000000e+00 </wgt>
<wgt id='1431'> +0.0000000e+00 </wgt>
<wgt id='1432'> +0.0000000e+00 </wgt>
<wgt id='1433'> +0.0000000e+00 </wgt>
<wgt id='1434'> +0.0000000e+00 </wgt>
<wgt id='1435'> +0.0000000e+00 </wgt>
<wgt id='1436'> +0.0000000e+00 </wgt>
<wgt id='1437'> +0.0000000e+00 </wgt>
<wgt id='1438'> +0.0000000e+00 </wgt>
<wgt id='1439'> +0.0000000e+00 </wgt>
<wgt id='1440'> +0.0000000e+00 </wgt>
<wgt id='1441'> +0.0000000e+00 </wgt>
<wgt id='1442'> +0.0000000e+00 </wgt>
<wgt id='1443'> +0.0000000e+00 </wgt>
<wgt id='1444'> +0.0000000e+00 </wgt>
<wgt id='1445'> +0.0000000e+00 </wgt>
<wgt id='1446'> +0.0000000e+00 </wgt>
<wgt id='1447'> +0.0000000e+00 </wgt>
<wgt id='1448'> +0.0000000e+00 </wgt>
<wgt id='1449'> +0.0000000e+00 </wgt>
<wgt id='1450'> +0.0000000e+00 </wgt>
<wgt id='1451'> +0.0000000e+00 </wgt>
<wgt id='1452'> +0.0000000e+00 </wgt>
<wgt id='1453'> +0.0000000e+00 </wgt>
<wgt id='1454'> +0.0000000e+00 </wgt>
<wgt id='1455'> +0.0000000e+00 </wgt>
<wgt id='1456'> +0.0000000e+00 </wgt>
<wgt id='1457'> +0.0000000e+00 </wgt>
<wgt id='1458'> +0.0000000e+00 </wgt>
<wgt id='1459'> +0.0000000e+00 </wgt>
<wgt id='1460'> +0.0000000e+00 </wgt>
<wgt id='1461'> +0.0000000e+00 </wgt>
<wgt id='1462'> +0.0000000e+00 </wgt>
<wgt id='1463'> +0.0000000e+00 </wgt>
<wgt id='1464'> +0.0000000e+00 </wgt>
<wgt id='1465'> +0.0000000e+00 </wgt>
<wgt id='1466'> +0.0000000e+00 </wgt>
<wgt id='1467'> +0.0000000e+00 </wgt>
<wgt id='1468'> +0.0000000e+00 </wgt>
<wgt id='1469'> +0.0000000e+00 </wgt>
<wgt id='1470'> +0.0000000e+00 </wgt>
<wgt id='1471'> +0.0000000e+00 </wgt>
<wgt id='1472'> +0.0000000e+00 </wgt>
<wgt id='1473'> +0.0000000e+00 </wgt>
<wgt id='1474'> +0.0000000e+00 </wgt>
<wgt id='1475'> +0.0000000e+00 </wgt>
<wgt id='1476'> +0.0000000e+00 </wgt>
<wgt id='1477'> +0.0000000e+00 </wgt>
<wgt id='1478'> +0.0000000e+00 </wgt>
<wgt id='1479'> +0.0000000e+00 </wgt>
<wgt id='1480'> +0.0000000e+00 </wgt>
<wgt id='1481'> +0.0000000e+00 </wgt>
<wgt id='1482'> +0.0000000e+00 </wgt>
<wgt id='1483'> +0.0000000e+00 </wgt>
<wgt id='1484'> +0.0000000e+00 </wgt>
<wgt id='1485'> +0.0000000e+00 </wgt>
<wgt id='1486'> +0.0000000e+00 </wgt>
<wgt id='1487'> +0.0000000e+00 </wgt>
<wgt id='1488'> +0.0000000e+00 </wgt>
<wgt id='1489'> +0.0000000e+00 </wgt>
<wgt id='1490'> +0.0000000e+00 </wgt>
<wgt id='1491'> +0.0000000e+00 </wgt>
<wgt id='1492'> +0.0000000e+00 </wgt>
<wgt id='1493'> +0.0000000e+00 </wgt>
<wgt id='1494'> +0.0000000e+00 </wgt>
<wgt id='1495'> +0.0000000e+00 </wgt>
<wgt id='1496'> +0.0000000e+00 </wgt>
<wgt id='1497'> +0.0000000e+00 </wgt>
<wgt id='1498'> +0.0000000e+00 </wgt>
<wgt id='1499'> +0.0000000e+00 </wgt>
<wgt id='1500'> +0.0000000e+00 </wgt>
<wgt id='1501'> +0.0000000e+00 </wgt>
<wgt id='1502'> +0.0000000e+00 </wgt>
<wgt id='1503'> +0.0000000e+00 </wgt>
<wgt id='1504'> +0.0000000e+00 </wgt>
<wgt id='1505'> +0.0000000e+00 </wgt>
<wgt id='1506'> +0.0000000e+00 </wgt>
<wgt id='1507'> +0.0000000e+00 </wgt>
<wgt id='1508'> +0.0000000e+00 </wgt>
<wgt id='1509'> +0.0000000e+00 </wgt>
<wgt id='1510'> +0.0000000e+00 </wgt>
<wgt id='1511'> +0.0000000e+00 </wgt>
<wgt id='1512'> +0.0000000e+00 </wgt>
<wgt id='1513'> +0.0000000e+00 </wgt>
<wgt id='1514'> +0.0000000e+00 </wgt>
<wgt id='1515'> +0.0000000e+00 </wgt>
<wgt id='1516'> +0.0000000e+00 </wgt>
<wgt id='1517'> +0.0000000e+00 </wgt>
<wgt id='1518'> +0.0000000e+00 </wgt>
<wgt id='1519'> +0.0000000e+00 </wgt>
<wgt id='1520'> +0.0000000e+00 </wgt>
<wgt id='1521'> +0.0000000e+00 </wgt>
<wgt id='1522'> +0.0000000e+00 </wgt>
<wgt id='1523'> +0.0000000e+00 </wgt>
<wgt id='1524'> +0.0000000e+00 </wgt>
<wgt id='1525'> +0.0000000e+00 </wgt>
<wgt id='1526'> +0.0000000e+00 </wgt>
<wgt id='1527'> +0.0000000e+00 </wgt>
<wgt id='1528'> +0.0000000e+00 </wgt>
<wgt id='1529'> +0.0000000e+00 </wgt>
<wgt id='1530'> +0.0000000e+00 </wgt>
<wgt id='1531'> +0.0000000e+00 </wgt>
<wgt id='1532'> +0.0000000e+00 </wgt>
<wgt id='1533'> +0.0000000e+00 </wgt>
<wgt id='1534'> +0.0000000e+00 </wgt>
<wgt id='1535'> +0.0000000e+00 </wgt>
<wgt id='1536'> +0.0000000e+00 </wgt>
<wgt id='1537'> +0.0000000e+00 </wgt>
<wgt id='1538'> +0.0000000e+00 </wgt>
<wgt id='1539'> +0.0000000e+00 </wgt>
<wgt id='1540'> +0.0000000e+00 </wgt>
<wgt id='1541'> +0.0000000e+00 </wgt>
<wgt id='1542'> +0.0000000e+00 </wgt>
<wgt id='1543'> +0.0000000e+00 </wgt>
<wgt id='1544'> +0.0000000e+00 </wgt>
<wgt id='1545'> +0.0000000e+00 </wgt>
<wgt id='1546'> +0.0000000e+00 </wgt>
<wgt id='1547'> +0.0000000e+00 </wgt>
<wgt id='1548'> +0.0000000e+00 </wgt>
<wgt id='1549'> +0.0000000e+00 </wgt>
<wgt id='1550'> +0.0000000e+00 </wgt>
<wgt id='1551'> +0.0000000e+00 </wgt>
<wgt id='1552'> +0.0000000e+00 </wgt>
<wgt id='1553'> +0.0000000e+00 </wgt>
<wgt id='1554'> +0.0000000e+00 </wgt>
<wgt id='1555'> +0.0000000e+00 </wgt>
<wgt id='1556'> +0.0000000e+00 </wgt>
<wgt id='1557'> +0.0000000e+00 </wgt>
<wgt id='1558'> +0.0000000e+00 </wgt>
<wgt id='1559'> +0.0000000e+00 </wgt>
<wgt id='1560'> +0.0000000e+00 </wgt>
<wgt id='1561'> +0.0000000e+00 </wgt>
<wgt id='1562'> +0.0000000e+00 </wgt>
<wgt id='1563'> +0.0000000e+00 </wgt>
<wgt id='1564'> +0.0000000e+00 </wgt>
<wgt id='1565'> +0.0000000e+00 </wgt>
<wgt id='1566'> +0.0000000e+00 </wgt>
<wgt id='1567'> +0.0000000e+00 </wgt>
<wgt id='1568'> +0.0000000e+00 </wgt>
<wgt id='1569'> +0.0000000e+00 </wgt>
<wgt id='1570'> +0.0000000e+00 </wgt>
<wgt id='1571'> +0.0000000e+00 </wgt>
<wgt id='1572'> +0.0000000e+00 </wgt>
<wgt id='1573'> +0.0000000e+00 </wgt>
<wgt id='1574'> +0.0000000e+00 </wgt>
<wgt id='1575'> +0.0000000e+00 </wgt>
<wgt id='1576'> +0.0000000e+00 </wgt>
<wgt id='1577'> +0.0000000e+00 </wgt>
<wgt id='1578'> +0.0000000e+00 </wgt>
<wgt id='1579'> +0.0000000e+00 </wgt>
<wgt id='1580'> +0.0000000e+00 </wgt>
<wgt id='1581'> +0.0000000e+00 </wgt>
<wgt id='1582'> +0.0000000e+00 </wgt>
<wgt id='1583'> +0.0000000e+00 </wgt>
<wgt id='1584'> +0.0000000e+00 </wgt>
<wgt id='1585'> +0.0000000e+00 </wgt>
<wgt id='1586'> +0.0000000e+00 </wgt>
<wgt id='1587'> +0.0000000e+00 </wgt>
<wgt id='1588'> +0.0000000e+00 </wgt>
<wgt id='1589'> +0.0000000e+00 </wgt>
<wgt id='1590'> +0.0000000e+00 </wgt>
<wgt id='1591'> +0.0000000e+00 </wgt>
<wgt id='1592'> +0.0000000e+00 </wgt>
<wgt id='1593'> +0.0000000e+00 </wgt>
<wgt id='1594'> +0.0000000e+00 </wgt>
<wgt id='1595'> +0.0000000e+00 </wgt>
<wgt id='1596'> +0.0000000e+00 </wgt>
<wgt id='1597'> +0.0000000e+00 </wgt>
<wgt id='1598'> +0.0000000e+00 </wgt>
<wgt id='1599'> +0.0000000e+00 </wgt>
<wgt id='1600'> +0.0000000e+00 </wgt>
<wgt id='1601'> +0.0000000e+00 </wgt>
<wgt id='1602'> +0.0000000e+00 </wgt>
<wgt id='1603'> +0.0000000e+00 </wgt>
<wgt id='1604'> +0.0000000e+00 </wgt>
<wgt id='1605'> +0.0000000e+00 </wgt>
<wgt id='1606'> +0.0000000e+00 </wgt>
<wgt id='1607'> +0.0000000e+00 </wgt>
<wgt id='1608'> +0.0000000e+00 </wgt>
<wgt id='1609'> +0.0000000e+00 </wgt>
<wgt id='1610'> +0.0000000e+00 </wgt>
<wgt id='1611'> +0.0000000e+00 </wgt>
<wgt id='1612'> +1.5751680e-04 </wgt>
<wgt id='1613'> +1.5719413e-04 </wgt>
<wgt id='1614'> +1.5785066e-04 </wgt>
<wgt id='1615'> +1.5762278e-04 </wgt>
<wgt id='1616'> +1.5740654e-04 </wgt>
<wgt id='1617'> +1.5752337e-04 </wgt>
<wgt id='1618'> +1.5776714e-04 </wgt>
<wgt id='1619'> +1.5763475e-04 </wgt>
<wgt id='1620'> +1.5769180e-04 </wgt>
<wgt id='1621'> +1.5705983e-04 </wgt>
<wgt id='1622'> +1.5764039e-04 </wgt>
<wgt id='1623'> +1.5670136e-04 </wgt>
<wgt id='1624'> +1.5685375e-04 </wgt>
<wgt id='1625'> +1.5669543e-04 </wgt>
<wgt id='1626'> +1.5694659e-04 </wgt>
<wgt id='1627'> +1.5732207e-04 </wgt>
<wgt id='1628'> +1.5788420e-04 </wgt>
<wgt id='1629'> +1.5751254e-04 </wgt>
<wgt id='1630'> +1.5690184e-04 </wgt>
<wgt id='1631'> +1.5713590e-04 </wgt>
<wgt id='1632'> +1.5656561e-04 </wgt>
<wgt id='1633'> +1.5764983e-04 </wgt>
<wgt id='1634'> +1.5707766e-04 </wgt>
<wgt id='1635'> +1.5698561e-04 </wgt>
<wgt id='1636'> +1.5801064e-04 </wgt>
<wgt id='1637'> +1.5676928e-04 </wgt>
<wgt id='1638'> +1.5754768e-04 </wgt>
<wgt id='1639'> +1.5831801e-04 </wgt>
<wgt id='1640'> +1.5795633e-04 </wgt>
<wgt id='1641'> +1.5689315e-04 </wgt>
<wgt id='1642'> +1.5700799e-04 </wgt>
<wgt id='1643'> +1.5716270e-04 </wgt>
<wgt id='1644'> +1.5713879e-04 </wgt>
<wgt id='1645'> +1.5799021e-04 </wgt>
<wgt id='1646'> +1.5720705e-04 </wgt>
<wgt id='1647'> +1.5743420e-04 </wgt>
<wgt id='1648'> +1.5735035e-04 </wgt>
<wgt id='1649'> +1.5781627e-04 </wgt>
<wgt id='1650'> +1.5695916e-04 </wgt>
<wgt id='1651'> +1.5768514e-04 </wgt>
<wgt id='1652'> +1.5777887e-04 </wgt>
<wgt id='1653'> +1.5698605e-04 </wgt>
<wgt id='1654'> +1.5666149e-04 </wgt>
<wgt id='1655'> +1.5783105e-04 </wgt>
<wgt id='1656'> +1.5767104e-04 </wgt>
<wgt id='1657'> +1.5758518e-04 </wgt>
<wgt id='1658'> +1.5765326e-04 </wgt>
<wgt id='1659'> +1.5744595e-04 </wgt>
<wgt id='1660'> +1.5727318e-04 </wgt>
<wgt id='1661'> +1.5717801e-04 </wgt>
<wgt id='1662'> +1.5857411e-04 </wgt>
<wgt id='1663'> +1.5850792e-04 </wgt>
<wgt id='1664'> +1.5717394e-04 </wgt>
<wgt id='1665'> +1.5800379e-04 </wgt>
<wgt id='1666'> +1.5794634e-04 </wgt>
<wgt id='1667'> +1.5858865e-04 </wgt>
<wgt id='1668'> +1.5781570e-04 </wgt>
<wgt id='1669'> +1.5710303e-04 </wgt>
<wgt id='1670'> +1.5711207e-04 </wgt>
<wgt id='1671'> +1.5733771e-04 </wgt>
<wgt id='1672'> +1.5707008e-04 </wgt>
<wgt id='1673'> +1.5700091e-04 </wgt>
<wgt id='1674'> +1.5730728e-04 </wgt>
<wgt id='1675'> +1.5721646e-04 </wgt>
<wgt id='1676'> +1.5797590e-04 </wgt>
<wgt id='1677'> +1.5770197e-04 </wgt>
<wgt id='1678'> +1.5708582e-04 </wgt>
<wgt id='1679'> +1.5708826e-04 </wgt>
<wgt id='1680'> +1.5682638e-04 </wgt>
<wgt id='1681'> +1.5808472e-04 </wgt>
<wgt id='1682'> +1.5704234e-04 </wgt>
<wgt id='1683'> +1.5761254e-04 </wgt>
<wgt id='1684'> +1.5736460e-04 </wgt>
<wgt id='1685'> +1.5773250e-04 </wgt>
<wgt id='1686'> +1.5732822e-04 </wgt>
<wgt id='1687'> +1.5750804e-04 </wgt>
<wgt id='1688'> +1.5736319e-04 </wgt>
<wgt id='1689'> +1.5711450e-04 </wgt>
<wgt id='1690'> +1.5732841e-04 </wgt>
<wgt id='1691'> +1.5695677e-04 </wgt>
<wgt id='1692'> +1.5772432e-04 </wgt>
<wgt id='1693'> +1.5767799e-04 </wgt>
<wgt id='1694'> +1.5780631e-04 </wgt>
<wgt id='1695'> +1.5705595e-04 </wgt>
<wgt id='1696'> +1.5754200e-04 </wgt>
<wgt id='1697'> +1.5733040e-04 </wgt>
<wgt id='1698'> +1.5725993e-04 </wgt>
<wgt id='1699'> +1.5763635e-04 </wgt>
<wgt id='1700'> +1.5754317e-04 </wgt>
<wgt id='1701'> +1.5753493e-04 </wgt>
<wgt id='1702'> +1.5764911e-04 </wgt>
<wgt id='1703'> +1.5742647e-04 </wgt>
<wgt id='1704'> +1.5733664e-04 </wgt>
<wgt id='1705'> +1.5722113e-04 </wgt>
<wgt id='1706'> +1.5749624e-04 </wgt>
<wgt id='1707'> +1.5761760e-04 </wgt>
<wgt id='1708'> +1.5752282e-04 </wgt>
<wgt id='1709'> +1.5771278e-04 </wgt>
<wgt id='1710'> +1.5733227e-04 </wgt>
<wgt id='1711'> +1.5743834e-04 </wgt>
<wgt id='1712'> +1.5736959e-04 </wgt>
<wgt id='1713'> +1.5485586e-04 </wgt>
<wgt id='1714'> +1.6051773e-04 </wgt>
<wgt id='1715'> +0.0000000e+00 </wgt>
<wgt id='1716'> +0.0000000e+00 </wgt>
<wgt id='1717'> +0.0000000e+00 </wgt>
<wgt id='1718'> +0.0000000e+00 </wgt>
<wgt id='1719'> +0.0000000e+00 </wgt>
<wgt id='1720'> +0.0000000e+00 </wgt>
<wgt id='1721'> +0.0000000e+00 </wgt>
<wgt id='1722'> +0.0000000e+00 </wgt>
<wgt id='1723'> +0.0000000e+00 </wgt>
<wgt id='1724'> +0.0000000e+00 </wgt>
<wgt id='1725'> +0.0000000e+00 </wgt>
<wgt id='1726'> +0.0000000e+00 </wgt>
<wgt id='1727'> +0.0000000e+00 </wgt>
<wgt id='1728'> +0.0000000e+00 </wgt>
<wgt id='1729'> +0.0000000e+00 </wgt>
<wgt id='1730'> +0.0000000e+00 </wgt>
<wgt id='1731'> +0.0000000e+00 </wgt>
<wgt id='1732'> +0.0000000e+00 </wgt>
<wgt id='1733'> +0.0000000e+00 </wgt>
<wgt id='1734'> +0.0000000e+00 </wgt>
<wgt id='1735'> +0.0000000e+00 </wgt>
<wgt id='1736'> +0.0000000e+00 </wgt>
<wgt id='1737'> +0.0000000e+00 </wgt>
<wgt id='1738'> +0.0000000e+00 </wgt>
<wgt id='1739'> +0.0000000e+00 </wgt>
<wgt id='1740'> +0.0000000e+00 </wgt>
<wgt id='1741'> +0.0000000e+00 </wgt>
<wgt id='1742'> +0.0000000e+00 </wgt>
<wgt id='1743'> +0.0000000e+00 </wgt>
<wgt id='1744'> +0.0000000e+00 </wgt>
<wgt id='1745'> +0.0000000e+00 </wgt>
<wgt id='1746'> +0.0000000e+00 </wgt>
<wgt id='1747'> +0.0000000e+00 </wgt>
<wgt id='1748'> +0.0000000e+00 </wgt>
<wgt id='1749'> +0.0000000e+00 </wgt>
<wgt id='1750'> +0.0000000e+00 </wgt>
<wgt id='1751'> +0.0000000e+00 </wgt>
<wgt id='1752'> +0.0000000e+00 </wgt>
<wgt id='1753'> +0.0000000e+00 </wgt>
<wgt id='1754'> +0.0000000e+00 </wgt>
<wgt id='1755'> +0.0000000e+00 </wgt>
<wgt id='1756'> +0.0000000e+00 </wgt>
<wgt id='1757'> +0.0000000e+00 </wgt>
<wgt id='1758'> +0.0000000e+00 </wgt>
<wgt id='1759'> +0.0000000e+00 </wgt>
<wgt id='1760'> +0.0000000e+00 </wgt>
<wgt id='1761'> +0.0000000e+00 </wgt>
<wgt id='1762'> +0.0000000e+00 </wgt>
<wgt id='1763'> +0.0000000e+00 </wgt>
<wgt id='1764'> +0.0000000e+00 </wgt>
<wgt id='1765'> +0.0000000e+00 </wgt>
<wgt id='1766'> +0.0000000e+00 </wgt>
<wgt id='1767'> +0.0000000e+00 </wgt>
<wgt id='1768'> +0.0000000e+00 </wgt>
<wgt id='1769'> +0.0000000e+00 </wgt>
<wgt id='1770'> +0.0000000e+00 </wgt>
<wgt id='1771'> +0.0000000e+00 </wgt>
<wgt id='1772'> +0.0000000e+00 </wgt>
<wgt id='1773'> +0.0000000e+00 </wgt>
<wgt id='1774'> +0.0000000e+00 </wgt>
<wgt id='1775'> +0.0000000e+00 </wgt>
<wgt id='1776'> +0.0000000e+00 </wgt>
<wgt id='1777'> +0.0000000e+00 </wgt>
<wgt id='1778'> +0.0000000e+00 </wgt>
<wgt id='1779'> +0.0000000e+00 </wgt>
<wgt id='1780'> +0.0000000e+00 </wgt>
<wgt id='1781'> +0.0000000e+00 </wgt>
<wgt id='1782'> +0.0000000e+00 </wgt>
<wgt id='1783'> +0.0000000e+00 </wgt>
<wgt id='1784'> +0.0000000e+00 </wgt>
<wgt id='1785'> +0.0000000e+00 </wgt>
<wgt id='1786'> +0.0000000e+00 </wgt>
<wgt id='1787'> +0.0000000e+00 </wgt>
<wgt id='1788'> +0.0000000e+00 </wgt>
<wgt id='1789'> +0.0000000e+00 </wgt>
<wgt id='1790'> +0.0000000e+00 </wgt>
<wgt id='1791'> +0.0000000e+00 </wgt>
<wgt id='1792'> +0.0000000e+00 </wgt>
<wgt id='1793'> +0.0000000e+00 </wgt>
<wgt id='1794'> +0.0000000e+00 </wgt>
<wgt id='1795'> +0.0000000e+00 </wgt>
<wgt id='1796'> +0.0000000e+00 </wgt>
<wgt id='1797'> +0.0000000e+00 </wgt>
<wgt id='1798'> +0.0000000e+00 </wgt>
<wgt id='1799'> +0.0000000e+00 </wgt>
<wgt id='1800'> +0.0000000e+00 </wgt>
<wgt id='1801'> +0.0000000e+00 </wgt>
<wgt id='1802'> +0.0000000e+00 </wgt>
<wgt id='1803'> +0.0000000e+00 </wgt>
<wgt id='1804'> +0.0000000e+00 </wgt>
<wgt id='1805'> +0.0000000e+00 </wgt>
<wgt id='1806'> +0.0000000e+00 </wgt>
<wgt id='1807'> +0.0000000e+00 </wgt>
<wgt id='1808'> +0.0000000e+00 </wgt>
<wgt id='1809'> +0.0000000e+00 </wgt>
<wgt id='1810'> +0.0000000e+00 </wgt>
<wgt id='1811'> +0.0000000e+00 </wgt>
<wgt id='1812'> +0.0000000e+00 </wgt>
<wgt id='1813'> +0.0000000e+00 </wgt>
<wgt id='1814'> +0.0000000e+00 </wgt>
<wgt id='1815'> +0.0000000e+00 </wgt>
<wgt id='1816'> +0.0000000e+00 </wgt>
<wgt id='1817'> +0.0000000e+00 </wgt>
<wgt id='1818'> +0.0000000e+00 </wgt>
<wgt id='1819'> +0.0000000e+00 </wgt>
<wgt id='1820'> +0.0000000e+00 </wgt>
<wgt id='1821'> +0.0000000e+00 </wgt>
<wgt id='1822'> +0.0000000e+00 </wgt>
<wgt id='1823'> +0.0000000e+00 </wgt>
<wgt id='1824'> +0.0000000e+00 </wgt>
<wgt id='1825'> +0.0000000e+00 </wgt>
<wgt id='1826'> +0.0000000e+00 </wgt>
<wgt id='1827'> +0.0000000e+00 </wgt>
<wgt id='1828'> +0.0000000e+00 </wgt>
<wgt id='1829'> +0.0000000e+00 </wgt>
<wgt id='1830'> +0.0000000e+00 </wgt>
<wgt id='1831'> +0.0000000e+00 </wgt>
<wgt id='1832'> +0.0000000e+00 </wgt>
<wgt id='1833'> +0.0000000e+00 </wgt>
<wgt id='1834'> +0.0000000e+00 </wgt>
<wgt id='1835'> +0.0000000e+00 </wgt>
<wgt id='1836'> +0.0000000e+00 </wgt>
<wgt id='1837'> +0.0000000e+00 </wgt>
<wgt id='1838'> +0.0000000e+00 </wgt>
<wgt id='1839'> +0.0000000e+00 </wgt>
<wgt id='1840'> +0.0000000e+00 </wgt>
<wgt id='1841'> +0.0000000e+00 </wgt>
<wgt id='1842'> +0.0000000e+00 </wgt>
<wgt id='1843'> +0.0000000e+00 </wgt>
<wgt id='1844'> +0.0000000e+00 </wgt>
<wgt id='1845'> +0.0000000e+00 </wgt>
<wgt id='1846'> +0.0000000e+00 </wgt>
<wgt id='1847'> +0.0000000e+00 </wgt>
<wgt id='1848'> +0.0000000e+00 </wgt>
<wgt id='1849'> +0.0000000e+00 </wgt>
<wgt id='1850'> +0.0000000e+00 </wgt>
<wgt id='1851'> +0.0000000e+00 </wgt>
<wgt id='1852'> +0.0000000e+00 </wgt>
<wgt id='1853'> +0.0000000e+00 </wgt>
<wgt id='1854'> +0.0000000e+00 </wgt>
<wgt id='1855'> +0.0000000e+00 </wgt>
<wgt id='1856'> +0.0000000e+00 </wgt>
<wgt id='1857'> +0.0000000e+00 </wgt>
<wgt id='1858'> +0.0000000e+00 </wgt>
<wgt id='1859'> +0.0000000e+00 </wgt>
<wgt id='1860'> +0.0000000e+00 </wgt>
<wgt id='1861'> +0.0000000e+00 </wgt>
<wgt id='1862'> +0.0000000e+00 </wgt>
<wgt id='1863'> +0.0000000e+00 </wgt>
<wgt id='1864'> +0.0000000e+00 </wgt>
<wgt id='1865'> +0.0000000e+00 </wgt>
<wgt id='1866'> +0.0000000e+00 </wgt>
<wgt id='1867'> +0.0000000e+00 </wgt>
<wgt id='1868'> +0.0000000e+00 </wgt>
<wgt id='1869'> +0.0000000e+00 </wgt>
<wgt id='1870'> +0.0000000e+00 </wgt>
<wgt id='1871'> +0.0000000e+00 </wgt>
<wgt id='1872'> +0.0000000e+00 </wgt>
<wgt id='1873'> +0.0000000e+00 </wgt>
<wgt id='1874'> +0.0000000e+00 </wgt>
<wgt id='1875'> +0.0000000e+00 </wgt>
<wgt id='1876'> +0.0000000e+00 </wgt>
<wgt id='1877'> +0.0000000e+00 </wgt>
<wgt id='1878'> +0.0000000e+00 </wgt>
<wgt id='1879'> +0.0000000e+00 </wgt>
<wgt id='1880'> +0.0000000e+00 </wgt>
<wgt id='1881'> +0.0000000e+00 </wgt>
<wgt id='1882'> +0.0000000e+00 </wgt>
<wgt id='1883'> +0.0000000e+00 </wgt>
<wgt id='1884'> +0.0000000e+00 </wgt>
<wgt id='1885'> +0.0000000e+00 </wgt>
<wgt id='1886'> +0.0000000e+00 </wgt>
<wgt id='1887'> +0.0000000e+00 </wgt>
<wgt id='1888'> +0.0000000e+00 </wgt>
<wgt id='1889'> +0.0000000e+00 </wgt>
<wgt id='1890'> +0.0000000e+00 </wgt>
<wgt id='1891'> +0.0000000e+00 </wgt>
<wgt id='1892'> +0.0000000e+00 </wgt>
<wgt id='1893'> +0.0000000e+00 </wgt>
<wgt id='1894'> +0.0000000e+00 </wgt>
<wgt id='1895'> +0.0000000e+00 </wgt>
<wgt id='1896'> +0.0000000e+00 </wgt>
<wgt id='1897'> +0.0000000e+00 </wgt>
<wgt id='1898'> +0.0000000e+00 </wgt>
<wgt id='1899'> +0.0000000e+00 </wgt>
<wgt id='1900'> +0.0000000e+00 </wgt>
<wgt id='1901'> +0.0000000e+00 </wgt>
<wgt id='1902'> +0.0000000e+00 </wgt>
<wgt id='1903'> +0.0000000e+00 </wgt>
<wgt id='1904'> +0.0000000e+00 </wgt>
<wgt id='1905'> +0.0000000e+00 </wgt>
<wgt id='1906'> +0.0000000e+00 </wgt>
<wgt id='1907'> +0.0000000e+00 </wgt>
<wgt id='1908'> +0.0000000e+00 </wgt>
<wgt id='1909'> +0.0000000e+00 </wgt>
<wgt id='1910'> +0.0000000e+00 </wgt>
<wgt id='1911'> +0.0000000e+00 </wgt>
<wgt id='1912'> +0.0000000e+00 </wgt>
<wgt id='1913'> +0.0000000e+00 </wgt>
<wgt id='1914'> +0.0000000e+00 </wgt>
<wgt id='1915'> +0.0000000e+00 </wgt>
<wgt id='1916'> +0.0000000e+00 </wgt>
<wgt id='1917'> +0.0000000e+00 </wgt>
<wgt id='1918'> +0.0000000e+00 </wgt>
<wgt id='1919'> +0.0000000e+00 </wgt>
<wgt id='1920'> +0.0000000e+00 </wgt>
<wgt id='1921'> +0.0000000e+00 </wgt>
<wgt id='1922'> +0.0000000e+00 </wgt>
<wgt id='1923'> +0.0000000e+00 </wgt>
<wgt id='1924'> +0.0000000e+00 </wgt>
<wgt id='1925'> +0.0000000e+00 </wgt>
<wgt id='1926'> +0.0000000e+00 </wgt>
<wgt id='1927'> +0.0000000e+00 </wgt>
<wgt id='1928'> +0.0000000e+00 </wgt>
<wgt id='1929'> +0.0000000e+00 </wgt>
<wgt id='1930'> +0.0000000e+00 </wgt>
<wgt id='1931'> +0.0000000e+00 </wgt>
<wgt id='1932'> +0.0000000e+00 </wgt>
<wgt id='1933'> +0.0000000e+00 </wgt>
<wgt id='1934'> +0.0000000e+00 </wgt>
<wgt id='1935'> +0.0000000e+00 </wgt>
<wgt id='1936'> +0.0000000e+00 </wgt>
<wgt id='1937'> +0.0000000e+00 </wgt>
<wgt id='1938'> +0.0000000e+00 </wgt>
<wgt id='1939'> +0.0000000e+00 </wgt>
<wgt id='1940'> +0.0000000e+00 </wgt>
<wgt id='1941'> +0.0000000e+00 </wgt>
<wgt id='1942'> +0.0000000e+00 </wgt>
<wgt id='1943'> +0.0000000e+00 </wgt>
<wgt id='1944'> +0.0000000e+00 </wgt>
<wgt id='1945'> +0.0000000e+00 </wgt>
<wgt id='1946'> +0.0000000e+00 </wgt>
<wgt id='1947'> +0.0000000e+00 </wgt>
<wgt id='1948'> +0.0000000e+00 </wgt>
<wgt id='1949'> +0.0000000e+00 </wgt>
<wgt id='1950'> +0.0000000e+00 </wgt>
<wgt id='1951'> +0.0000000e+00 </wgt>
<wgt id='1952'> +0.0000000e+00 </wgt>
<wgt id='1953'> +0.0000000e+00 </wgt>
<wgt id='1954'> +0.0000000e+00 </wgt>
<wgt id='1955'> +0.0000000e+00 </wgt>
<wgt id='1956'> +0.0000000e+00 </wgt>
<wgt id='1957'> +0.0000000e+00 </wgt>
<wgt id='1958'> +0.0000000e+00 </wgt>
<wgt id='1959'> +0.0000000e+00 </wgt>
<wgt id='1960'> +0.0000000e+00 </wgt>
<wgt id='1961'> +0.0000000e+00 </wgt>
<wgt id='1962'> +0.0000000e+00 </wgt>
<wgt id='1963'> +0.0000000e+00 </wgt>
<wgt id='1964'> +0.0000000e+00 </wgt>
<wgt id='1965'> +0.0000000e+00 </wgt>
<wgt id='1966'> +0.0000000e+00 </wgt>
<wgt id='1967'> +0.0000000e+00 </wgt>
<wgt id='1968'> +0.0000000e+00 </wgt>
<wgt id='1969'> +0.0000000e+00 </wgt>
<wgt id='1970'> +0.0000000e+00 </wgt>
<wgt id='1971'> +0.0000000e+00 </wgt>
<wgt id='1972'> +0.0000000e+00 </wgt>
<wgt id='1973'> +0.0000000e+00 </wgt>
<wgt id='1974'> +0.0000000e+00 </wgt>
<wgt id='1975'> +0.0000000e+00 </wgt>
<wgt id='1976'> +0.0000000e+00 </wgt>
<wgt id='1977'> +0.0000000e+00 </wgt>
<wgt id='1978'> +0.0000000e+00 </wgt>
<wgt id='1979'> +0.0000000e+00 </wgt>
<wgt id='1980'> +0.0000000e+00 </wgt>
<wgt id='1981'> +0.0000000e+00 </wgt>
<wgt id='1982'> +0.0000000e+00 </wgt>
<wgt id='1983'> +0.0000000e+00 </wgt>
<wgt id='1984'> +0.0000000e+00 </wgt>
<wgt id='1985'> +0.0000000e+00 </wgt>
<wgt id='1986'> +0.0000000e+00 </wgt>
<wgt id='1987'> +0.0000000e+00 </wgt>
<wgt id='1988'> +0.0000000e+00 </wgt>
<wgt id='1989'> +0.0000000e+00 </wgt>
<wgt id='1990'> +0.0000000e+00 </wgt>
<wgt id='1991'> +0.0000000e+00 </wgt>
<wgt id='1992'> +0.0000000e+00 </wgt>
<wgt id='1993'> +0.0000000e+00 </wgt>
<wgt id='1994'> +0.0000000e+00 </wgt>
<wgt id='1995'> +0.0000000e+00 </wgt>
<wgt id='1996'> +0.0000000e+00 </wgt>
<wgt id='1997'> +0.0000000e+00 </wgt>
<wgt id='1998'> +0.0000000e+00 </wgt>
<wgt id='1999'> +0.0000000e+00 </wgt>
<wgt id='2000'> +0.0000000e+00 </wgt>
<wgt id='2001'> +0.0000000e+00 </wgt>
<wgt id='2002'> +0.0000000e+00 </wgt>
<wgt id='2003'> +0.0000000e+00 </wgt>
<wgt id='2004'> +0.0000000e+00 </wgt>
<wgt id='2005'> +0.0000000e+00 </wgt>
<wgt id='2006'> +0.0000000e+00 </wgt>
<wgt id='2007'> +0.0000000e+00 </wgt>
<wgt id='2008'> +0.0000000e+00 </wgt>
<wgt id='2009'> +0.0000000e+00 </wgt>
<wgt id='2010'> +0.0000000e+00 </wgt>
<wgt id='2011'> +0.0000000e+00 </wgt>
<wgt id='2012'> +0.0000000e+00 </wgt>
<wgt id='2013'> +0.0000000e+00 </wgt>
<wgt id='2014'> +0.0000000e+00 </wgt>
<wgt id='2015'> +0.0000000e+00 </wgt>
<wgt id='2016'> +0.0000000e+00 </wgt>
<wgt id='2017'> +0.0000000e+00 </wgt>
<wgt id='2018'> +0.0000000e+00 </wgt>
<wgt id='2019'> +0.0000000e+00 </wgt>
<wgt id='2020'> +0.0000000e+00 </wgt>
<wgt id='2021'> +0.0000000e+00 </wgt>
<wgt id='2022'> +0.0000000e+00 </wgt>
</rwgt>
</event>
<event>
14      1 +1.5732536e-04 2.44467300e+02 7.81860800e-03 1.17659700e-01
        2 -1    0    0  501    0 +0.0000000000e+00 +0.0000000000e+00 +1.5296975850e+03 1.5296975850e+03 2.5500000000e-03 0.0000e+00 -1.0000e+00
        5 -1    0    0  502    0 +0.0000000000e+00 +0.0000000000e+00 -1.2846060458e+03 1.2846146438e+03 4.7000000000e+00 0.0000e+00 -1.0000e+00
        2  1    1    2  501    0 +3.3564342432e+01 -1.1091329800e+01 +6.2423211966e+02 6.2523221438e+02 2.5500000000e-03 0.0000e+00 -1.0000e+00
      -24  2    1    2    0    0 +4.1553377814e+02 +4.4264219431e+02 +6.6672213417e+02 9.0537185023e+02 8.1113192831e+01 0.0000e+00 0.0000e+00
      -16  1    4    4    0    0 +4.2237604501e+01 +6.8730038763e+01 +1.2402462872e+02 1.4795249910e+02 0.0000000000e+00 0.0000e+00 1.0000e+00
       15  1    4    4    0    0 +3.7329617364e+02 +3.7391215554e+02 +5.4269750545e+02 7.5741935113e+02 1.7770000000e+00 0.0000e+00 -1.0000e+00
       23  2    1    2    0    0 -1.4899706616e+01 +1.9344498629e+01 -1.6320457008e+02 1.8760434443e+02 8.9238150299e+01 0.0000e+00 0.0000e+00
        3  1    7    7  503    0 -1.0708200713e+01 +3.5889125129e+01 -1.8275449920e+01 4.1673698370e+01 1.0100000000e-01 0.0000e+00 -1.0000e+00
       -3  1    7    7    0  503 -4.1915059024e+00 -1.6544626500e+01 -1.4492912016e+02 1.4593064606e+02 1.0100000000e-01 0.0000e+00 1.0000e+00
        6  2    1    2  502    0 -4.3419841395e+02 -4.5089536314e+02 -8.8265814455e+02 1.0961038198e+03 1.7470916514e+02 0.0000e+00 0.0000e+00
        5  1   10   10  502    0 -2.7615057276e+01 -7.2310096947e+01 -5.1339360378e+01 9.3000867905e+01 4.7000000000e+00 0.0000e+00 -1.0000e+00
       24  2   10   10    0    0 -4.0658335668e+02 -3.7858526619e+02 -8.3131878417e+02 1.0031029519e+03 8.0546765353e+01 0.0000e+00 0.0000e+00
        2  1   12   12  504    0 -2.8180873582e+02 -2.3714209141e+02 -4.8804669063e+02 6.1142628938e+02 2.5500000000e-03 0.0000e+00 -1.0000e+00
       -1  1   12   12    0  504 -1.2477462086e+02 -1.4144317478e+02 -3.4327209354e+02 3.9167666248e+02 5.0400000000e-03 0.0000e+00 1.0000e+00
<mgrwt>
<rscale>  0 0.92961187e+02</rscale>
<asrwt>0</asrwt>
<pdfrwt beam="1">  1        2 0.21852823e+00 0.35349437e+02</pdfrwt>
<pdfrwt beam="2">  1        5 0.18351628e+00 0.24446732e+03</pdfrwt>
<totfact> 0.67698221e-01</totfact>
</mgrwt>
<rwgt>
<wgt id='1001'> +1.5732536e-04 </wgt>
<wgt id='1002'> +1.2423513e-04 </wgt>
<wgt id='1003'> +1.2423487e-04 </wgt>
<wgt id='1004'> +1.2931614e-04 </wgt>
<wgt id='1005'> +1.1849040e-04 </wgt>
<wgt id='1006'> +1.5732536e-04 </wgt>
<wgt id='1007'> +1.2423513e-04 </wgt>
<wgt id='1008'> +1.2423487e-04 </wgt>
<wgt id='1009'> +1.2931614e-04 </wgt>
<wgt id='1010'> +1.1849040e-04 </wgt>
<wgt id='1011'> +1.5732536e-04 </wgt>
<wgt id='1012'> +1.2423513e-04 </wgt>
<wgt id='1013'> +1.2423487e-04 </wgt>
<wgt id='1014'> +1.2931614e-04 </wgt>
<wgt id='1015'> +1.1849040e-04 </wgt>
<wgt id='1016'> +1.5100796e-04 </wgt>
<wgt id='1017'> +1.1888286e-04 </wgt>
<wgt id='1018'> +1.1888259e-04 </wgt>
<wgt id='1019'> +1.2423487e-04 </wgt>
<wgt id='1020'> +1.1321791e-04 </wgt>
<wgt id='1021'> +1.5100796e-04 </wgt>
<wgt id='1022'> +1.1888286e-04 </wgt>
<wgt id='1023'> +1.1888259e-04 </wgt>
<wgt id='1024'> +1.2423487e-04 </wgt>
<wgt id='1025'> +1.1321791e-04 </wgt>
<wgt id='1026'> +1.5100796e-04 </wgt>
<wgt id='1027'> +1.1888286e-04 </wgt>
<wgt id='1028'> +1.1888259e-04 </wgt>
<wgt id='1029'> +1.2423487e-04 </wgt>
<wgt id='1030'> +1.1321791e-04 </wgt>
<wgt id='1031'> +1.6228030e-04 </wgt>
<wgt id='1032'> +1.2931639e-04 </wgt>
<wgt id='1033'> +1.2931614e-04 </wgt>
<wgt id='1034'> +1.3385157e-04 </wgt>
<wgt id='1035'> +1.2385673e-04 </wgt>
<wgt id='1036'> +1.6228030e-04 </wgt>
<wgt id='1037'> +1.2931639e-04 </wgt>
<wgt id='1038'> +1.2931614e-04 </wgt>
<wgt id='1039'> +1.3385157e-04 </wgt>
<wgt id='1040'> +1.2385673e-04 </wgt>
<wgt id='1041'> +1.6228030e-04 </wgt>
<wgt id='1042'> +1.2931639e-04 </wgt>
<wgt id='1043'> +1.2931614e-04 </wgt>
<wgt id='1044'> +1.3385157e-04 </wgt>
<wgt id='1045'> +1.2385673e-04 </wgt>
<wgt id='1046'> +1.5732536e-04 </wgt>
<wgt id='1047'> +1.5732536e-04 </wgt>
<wgt id='1048'> +0.0000000e+00 </wgt>
<wgt id='1049'> +0.0000000e+00 </wgt>
<wgt id='1050'> +0.0000000e+00 </wgt>
<wgt id='1051'> +0.0000000e+00 </wgt>
<wgt id='1052'> +0.0000000e+00 </wgt>
<wgt id='1053'> +0.0000000e+00 </wgt>
<wgt id='1054'> +0.0000000e+00 </wgt>
<wgt id='1055'> +0.0000000e+00 </wgt>
<wgt id='1056'> +0.0000000e+00 </wgt>
<wgt id='1057'> +0.0000000e+00 </wgt>
<wgt id='1058'> +0.0000000e+00 </wgt>
<wgt id='1059'> +0.0000000e+00 </wgt>
<wgt id='1060'> +0.0000000e+00 </wgt>
<wgt id='1061'> +0.0000000e+00 </wgt>
<wgt id='1062'> +0.0000000e+00 </wgt>
<wgt id='1063'> +0.0000000e+00 </wgt>
<wgt id='1064'> +0.0000000e+00 </wgt>
<wgt id='1065'> +0.0000000e+00 </wgt>
<wgt id='1066'> +0.0000000e+00 </wgt>
<wgt id='1067'> +0.0000000e+00 </wgt>
<wgt id='1068'> +0.0000000e+00 </wgt>
<wgt id='1069'> +0.0000000e+00 </wgt>
<wgt id='1070'> +0.0000000e+00 </wgt>
<wgt id='1071'> +0.0000000e+00 </wgt>
<wgt id='1072'> +0.0000000e+00 </wgt>
<wgt id='1073'> +0.0000000e+00 </wgt>
<wgt id='1074'> +0.0000000e+00 </wgt>
<wgt id='1075'> +0.0000000e+00 </wgt>
<wgt id='1076'> +0.0000000e+00 </wgt>
<wgt id='1077'> +0.0000000e+00 </wgt>
<wgt id='1078'> +0.0000000e+00 </wgt>
<wgt id='1079'> +0.0000000e+00 </wgt>
<wgt id='1080'> +0.0000000e+00 </wgt>
<wgt id='1081'> +0.0000000e+00 </wgt>
<wgt id='1082'> +0.0000000e+00 </wgt>
<wgt id='1083'> +0.0000000e+00 </wgt>
<wgt id='1084'> +0.0000000e+00 </wgt>
<wgt id='1085'> +0.0000000e+00 </wgt>
<wgt id='1086'> +0.0000000e+00 </wgt>
<wgt id='1087'> +0.0000000e+00 </wgt>
<wgt id='1088'> +0.0000000e+00 </wgt>
<wgt id='1089'> +0.0000000e+00 </wgt>
<wgt id='1090'> +0.0000000e+00 </wgt>
<wgt id='1091'> +0.0000000e+00 </wgt>
<wgt id='1092'> +0.0000000e+00 </wgt>
<wgt id='1093'> +0.0000000e+00 </wgt>
<wgt id='1094'> +0.0000000e+00 </wgt>
<wgt id='1095'> +0.0000000e+00 </wgt>
<wgt id='1096'> +0.0000000e+00 </wgt>
<wgt id='1097'> +0.0000000e+00 </wgt>
<wgt id='1098'> +0.0000000e+00 </wgt>
<wgt id='1099'> +0.0000000e+00 </wgt>
<wgt id='1100'> +0.0000000e+00 </wgt>
<wgt id='1101'> +0.0000000e+00 </wgt>
<wgt id='1102'> +0.0000000e+00 </wgt>
<wgt id='1103'> +0.0000000e+00 </wgt>
<wgt id='1104'> +0.0000000e+00 </wgt>
<wgt id='1105'> +0.0000000e+00 </wgt>
<wgt id='1106'> +0.0000000e+00 </wgt>
<wgt id='1107'> +0.0000000e+00 </wgt>
<wgt id='1108'> +0.0000000e+00 </wgt>
<wgt id='1109'> +0.0000000e+00 </wgt>
<wgt id='1110'> +0.0000000e+00 </wgt>
<wgt id='1111'> +0.0000000e+00 </wgt>
<wgt id='1112'> +0.0000000e+00 </wgt>
<wgt id='1113'> +0.0000000e+00 </wgt>
<wgt id='1114'> +0.0000000e+00 </wgt>
<wgt id='1115'> +0.0000000e+00 </wgt>
<wgt id='1116'> +0.0000000e+00 </wgt>
<wgt id='1117'> +0.0000000e+00 </wgt>
<wgt id='1118'> +0.0000000e+00 </wgt>
<wgt id='1119'> +0.0000000e+00 </wgt>
<wgt id='1120'> +0.0000000e+00 </wgt>
<wgt id='1121'> +0.0000000e+00 </wgt>
<wgt id='1122'> +0.0000000e+00 </wgt>
<wgt id='1123'> +0.0000000e+00 </wgt>
<wgt id='1124'> +0.0000000e+00 </wgt>
<wgt id='1125'> +0.0000000e+00 </wgt>
<wgt id='1126'> +0.0000000e+00 </wgt>
<wgt id='1127'> +0.0000000e+00 </wgt>
<wgt id='1128'> +0.0000000e+00 </wgt>
<wgt id='1129'> +0.0000000e+00 </wgt>
<wgt id='1130'> +0.0000000e+00 </wgt>
<wgt id='1131'> +0.0000000e+00 </wgt>
<wgt id='1132'> +0.0000000e+00 </wgt>
<wgt id='1133'> +0.0000000e+00 </wgt>
<wgt id='1134'> +0.0000000e+00 </wgt>
<wgt id='1135'> +0.0000000e+00 </wgt>
<wgt id='1136'> +0.0000000e+00 </wgt>
<wgt id='1137'> +0.0000000e+00 </wgt>
<wgt id='1138'> +0.0000000e+00 </wgt>
<wgt id='1139'> +0.0000000e+00 </wgt>
<wgt id='1140'> +0.0000000e+00 </wgt>
<wgt id='1141'> +0.0000000e+00 </wgt>
<wgt id='1142'> +0.0000000e+00 </wgt>
<wgt id='1143'> +0.0000000e+00 </wgt>
<wgt id='1144'> +0.0000000e+00 </wgt>
<wgt id='1145'> +0.0000000e+00 </wgt>
<wgt id='1146'> +0.0000000e+00 </wgt>
<wgt id='1147'> +0.0000000e+00 </wgt>
<wgt id='1148'> +0.0000000e+00 </wgt>
<wgt id='1149'> +0.0000000e+00 </wgt>
<wgt id='1150'> +0.0000000e+00 </wgt>
<wgt id='1151'> +0.0000000e+00 </wgt>
<wgt id='1152'> +0.0000000e+00 </wgt>
<wgt id='1153'> +0.0000000e+00 </wgt>
<wgt id='1154'> +0.0000000e+00 </wgt>
<wgt id='1155'> +0.0000000e+00 </wgt>
<wgt id='1156'> +0.0000000e+00 </wgt>
<wgt id='1157'> +0.0000000e+00 </wgt>
<wgt id='1158'> +0.0000000e+00 </wgt>
<wgt id='1159'> +0.0000000e+00 </wgt>
<wgt id='1160'> +0.0000000e+00 </wgt>
<wgt id='1161'> +0.0000000e+00 </wgt>
<wgt id='1162'> +0.0000000e+00 </wgt>
<wgt id='1163'> +0.0000000e+00 </wgt>
<wgt id='1164'> +0.0000000e+00 </wgt>
<wgt id='1165'> +0.0000000e+00 </wgt>
<wgt id='1166'> +0.0000000e+00 </wgt>
<wgt id='1167'> +0.0000000e+00 </wgt>
<wgt id='1168'> +0.0000000e+00 </wgt>
<wgt id='1169'> +0.0000000e+00 </wgt>
<wgt id='1170'> +0.0000000e+00 </wgt>
<wgt id='1171'> +0.0000000e+00 </wgt>
<wgt id='1172'> +0.0000000e+00 </wgt>
<wgt id='1173'> +0.0000000e+00 </wgt>
<wgt id='1174'> +0.0000000e+00 </wgt>
<wgt id='1175'> +0.0000000e+00 </wgt>
<wgt id='1176'> +0.0000000e+00 </wgt>
<wgt id='1177'> +0.0000000e+00 </wgt>
<wgt id='1178'> +0.0000000e+00 </wgt>
<wgt id='1179'> +0.0000000e+00 </wgt>
<wgt id='1180'> +0.0000000e+00 </wgt>
<wgt id='1181'> +0.0000000e+00 </wgt>
<wgt id='1182'> +0.0000000e+00 </wgt>
<wgt id='1183'> +0.0000000e+00 </wgt>
<wgt id='1184'> +0.0000000e+00 </wgt>
<wgt id='1185'> +0.0000000e+00 </wgt>
<wgt id='1186'> +0.0000000e+00 </wgt>
<wgt id='1187'> +0.0000000e+00 </wgt>
<wgt id='1188'> +0.0000000e+00 </wgt>
<wgt id='1189'> +0.0000000e+00 </wgt>
<wgt id='1190'> +0.0000000e+00 </wgt>
<wgt id='1191'> +0.0000000e+00 </wgt>
<wgt id='1192'> +0.0000000e+00 </wgt>
<wgt id='1193'> +0.0000000e+00 </wgt>
<wgt id='1194'> +0.0000000e+00 </wgt>
<wgt id='1195'> +0.0000000e+00 </wgt>
<wgt id='1196'> +0.0000000e+00 </wgt>
<wgt id='1197'> +0.0000000e+00 </wgt>
<wgt id='1198'> +0.0000000e+00 </wgt>
<wgt id='1199'> +0.0000000e+00 </wgt>
<wgt id='1200'> +0.0000000e+00 </wgt>
<wgt id='1201'> +0.0000000e+00 </wgt>
<wgt id='1202'> +0.0000000e+00 </wgt>
<wgt id='1203'> +0.0000000e+00 </wgt>
<wgt id='1204'> +0.0000000e+00 </wgt>
<wgt id='1205'> +0.0000000e+00 </wgt>
<wgt id='1206'> +0.0000000e+00 </wgt>
<wgt id='1207'> +0.0000000e+00 </wgt>
<wgt id='1208'> +0.0000000e+00 </wgt>
<wgt id='1209'> +0.0000000e+00 </wgt>
<wgt id='1210'> +0.0000000e+00 </wgt>
<wgt id='1211'> +0.0000000e+00 </wgt>
<wgt id='1212'> +0.0000000e+00 </wgt>
<wgt id='1213'> +0.0000000e+00 </wgt>
<wgt id='1214'> +0.0000000e+00 </wgt>
<wgt id='1215'> +0.0000000e+00 </wgt>
<wgt id='1216'> +0.0000000e+00 </wgt>
<wgt id='1217'> +0.0000000e+00 </wgt>
<wgt id='1218'> +0.0000000e+00 </wgt>
<wgt id='1219'> +0.0000000e+00 </wgt>
<wgt id='1220'> +0.0000000e+00 </wgt>
<wgt id='1221'> +0.0000000e+00 </wgt>
<wgt id='1222'> +0.0000000e+00 </wgt>
<wgt id='1223'> +0.0000000e+00 </wgt>
<wgt id='1224'> +0.0000000e+00 </wgt>
<wgt id='1225'> +0.0000000e+00 </wgt>
<wgt id='1226'> +0.0000000e+00 </wgt>
<wgt id='1227'> +0.0000000e+00 </wgt>
<wgt id='1228'> +0.0000000e+00 </wgt>
<wgt id='1229'> +0.0000000e+00 </wgt>
<wgt id='1230'> +0.0000000e+00 </wgt>
<wgt id='1231'> +0.0000000e+00 </wgt>
<wgt id='1232'> +0.0000000e+00 </wgt>
<wgt id='1233'> +0.0000000e+00 </wgt>
<wgt id='1234'> +0.0000000e+00 </wgt>
<wgt id='1235'> +0.0000000e+00 </wgt>
<wgt id='1236'> +0.0000000e+00 </wgt>
<wgt id='1237'> +0.0000000e+00 </wgt>
<wgt id='1238'> +0.0000000e+00 </wgt>
<wgt id='1239'> +0.0000000e+00 </wgt>
<wgt id='1240'> +0.0000000e+00 </wgt>
<wgt id='1241'> +0.0000000e+00 </wgt>
<wgt id='1242'> +0.0000000e+00 </wgt>
<wgt id='1243'> +0.0000000e+00 </wgt>
<wgt id='1244'> +0.0000000e+00 </wgt>
<wgt id='1245'> +0.0000000e+00 </wgt>
<wgt id='1246'> +0.0000000e+00 </wgt>
<wgt id='1247'> +0.0000000e+00 </wgt>
<wgt id='1248'> +0.0000000e+00 </wgt>
<wgt id='1249'> +0.0000000e+00 </wgt>
<wgt id='1250'> +0.0000000e+00 </wgt>
<wgt id='1251'> +0.0000000e+00 </wgt>
<wgt id='1252'> +0.0000000e+00 </wgt>
<wgt id='1253'> +0.0000000e+00 </wgt>
<wgt id='1254'> +0.0000000e+00 </wgt>
<wgt id='1255'> +0.0000000e+00 </wgt>
<wgt id='1256'> +0.0000000e+00 </wgt>
<wgt id='1257'> +0.0000000e+00 </wgt>
<wgt id='1258'> +0.0000000e+00 </wgt>
<wgt id='1259'> +0.0000000e+00 </wgt>
<wgt id='1260'> +0.0000000e+00 </wgt>
<wgt id='1261'> +0.0000000e+00 </wgt>
<wgt id='1262'> +0.0000000e+00 </wgt>
<wgt id='1263'> +0.0000000e+00 </wgt>
<wgt id='1264'> +0.0000000e+00 </wgt>
<wgt id='1265'> +0.0000000e+00 </wgt>
<wgt id='1266'> +0.0000000e+00 </wgt>
<wgt id='1267'> +0.0000000e+00 </wgt>
<wgt id='1268'> +0.0000000e+00 </wgt>
<wgt id='1269'> +0.0000000e+00 </wgt>
<wgt id='1270'> +0.0000000e+00 </wgt>
<wgt id='1271'> +0.0000000e+00 </wgt>
<wgt id='1272'> +0.0000000e+00 </wgt>
<wgt id='1273'> +0.0000000e+00 </wgt>
<wgt id='1274'> +0.0000000e+00 </wgt>
<wgt id='1275'> +0.0000000e+00 </wgt>
<wgt id='1276'> +0.0000000e+00 </wgt>
<wgt id='1277'> +0.0000000e+00 </wgt>
<wgt id='1278'> +0.0000000e+00 </wgt>
<wgt id='1279'> +0.0000000e+00 </wgt>
<wgt id='1280'> +0.0000000e+00 </wgt>
<wgt id='1281'> +0.0000000e+00 </wgt>
<wgt id='1282'> +0.0000000e+00 </wgt>
<wgt id='1283'> +0.0000000e+00 </wgt>
<wgt id='1284'> +0.0000000e+00 </wgt>
<wgt id='1285'> +0.0000000e+00 </wgt>
<wgt id='1286'> +0.0000000e+00 </wgt>
<wgt id='1287'> +0.0000000e+00 </wgt>
<wgt id='1288'> +0.0000000e+00 </wgt>
<wgt id='1289'> +0.0000000e+00 </wgt>
<wgt id='1290'> +0.0000000e+00 </wgt>
<wgt id='1291'> +0.0000000e+00 </wgt>
<wgt id='1292'> +0.0000000e+00 </wgt>
<wgt id='1293'> +0.0000000e+00 </wgt>
<wgt id='1294'> +0.0000000e+00 </wgt>
<wgt id='1295'> +0.0000000e+00 </wgt>
<wgt id='1296'> +0.0000000e+00 </wgt>
<wgt id='1297'> +0.0000000e+00 </wgt>
<wgt id='1298'> +0.0000000e+00 </wgt>
<wgt id='1299'> +0.0000000e+00 </wgt>
<wgt id='1300'> +0.0000000e+00 </wgt>
<wgt id='1301'> +0.0000000e+00 </wgt>
<wgt id='1302'> +0.0000000e+00 </wgt>
<wgt id='1303'> +0.0000000e+00 </wgt>
<wgt id='1304'> +0.0000000e+00 </wgt>
<wgt id='1305'> +0.0000000e+00 </wgt>
<wgt id='1306'> +0.0000000e+00 </wgt>
<wgt id='1307'> +0.0000000e+00 </wgt>
<wgt id='1308'> +0.0000000e+00 </wgt>
<wgt id='1309'> +0.0000000e+00 </wgt>
<wgt id='1310'> +0.0000000e+00 </wgt>
<wgt id='1311'> +0.0000000e+00 </wgt>
<wgt id='1312'> +0.0000000e+00 </wgt>
<wgt id='1313'> +0.0000000e+00 </wgt>
<wgt id='1314'> +0.0000000e+00 </wgt>
<wgt id='1315'> +0.0000000e+00 </wgt>
<wgt id='1316'> +0.0000000e+00 </wgt>
<wgt id='1317'> +0.0000000e+00 </wgt>
<wgt id='1318'> +0.0000000e+00 </wgt>
<wgt id='1319'> +0.0000000e+00 </wgt>
<wgt id='1320'> +0.0000000e+00 </wgt>
<wgt id='1321'> +0.0000000e+00 </wgt>
<wgt id='1322'> +0.0000000e+00 </wgt>
<wgt id='1323'> +0.0000000e+00 </wgt>
<wgt id='1324'> +0.0000000e+00 </wgt>
<wgt id='1325'> +0.0000000e+00 </wgt>
<wgt id='1326'> +0.0000000e+00 </wgt>
<wgt id='1327'> +0.0000000e+00 </wgt>
<wgt id='1328'> +0.0000000e+00 </wgt>
<wgt id='1329'> +0.0000000e+00 </wgt>
<wgt id='1330'> +0.0000000e+00 </wgt>
<wgt id='1331'> +0.0000000e+00 </wgt>
<wgt id='1332'> +0.0000000e+00 </wgt>
<wgt id='1333'> +0.0000000e+00 </wgt>
<wgt id='1334'> +0.0000000e+00 </wgt>
<wgt id='1335'> +0.0000000e+00 </wgt>
<wgt id='1336'> +0.0000000e+00 </wgt>
<wgt id='1337'> +0.0000000e+00 </wgt>
<wgt id='1338'> +0.0000000e+00 </wgt>
<wgt id='1339'> +0.0000000e+00 </wgt>
<wgt id='1340'> +0.0000000e+00 </wgt>
<wgt id='1341'> +0.0000000e+00 </wgt>
<wgt id='1342'> +0.0000000e+00 </wgt>
<wgt id='1343'> +0.0000000e+00 </wgt>
<wgt id='1344'> +0.0000000e+00 </wgt>
<wgt id='1345'> +0.0000000e+00 </wgt>
<wgt id='1346'> +0.0000000e+00 </wgt>
<wgt id='1347'> +0.0000000e+00 </wgt>
<wgt id='1348'> +0.0000000e+00 </wgt>
<wgt id='1349'> +0.0000000e+00 </wgt>
<wgt id='1350'> +0.0000000e+00 </wgt>
<wgt id='1351'> +0.0000000e+00 </wgt>
<wgt id='1352'> +0.0000000e+00 </wgt>
<wgt id='1353'> +0.0000000e+00 </wgt>
<wgt id='1354'> +0.0000000e+00 </wgt>
<wgt id='1355'> +0.0000000e+00 </wgt>
<wgt id='1356'> +0.0000000e+00 </wgt>
<wgt id='1357'> +0.0000000e+00 </wgt>
<wgt id='1358'> +0.0000000e+00 </wgt>
<wgt id='1359'> +0.0000000e+00 </wgt>
<wgt id='1360'> +0.0000000e+00 </wgt>
<wgt id='1361'> +0.0000000e+00 </wgt>
<wgt id='1362'> +0.0000000e+00 </wgt>
<wgt id='1363'> +0.0000000e+00 </wgt>
<wgt id='1364'> +0.0000000e+00 </wgt>
<wgt id='1365'> +0.0000000e+00 </wgt>
<wgt id='1366'> +0.0000000e+00 </wgt>
<wgt id='1367'> +0.0000000e+00 </wgt>
<wgt id='1368'> +0.0000000e+00 </wgt>
<wgt id='1369'> +0.0000000e+00 </wgt>
<wgt id='1370'> +0.0000000e+00 </wgt>
<wgt id='1371'> +0.0000000e+00 </wgt>
<wgt id='1372'> +0.0000000e+00 </wgt>
<wgt id='1373'> +0.0000000e+00 </wgt>
<wgt id='1374'> +0.0000000e+00 </wgt>
<wgt id='1375'> +0.0000000e+00 </wgt>
<wgt id='1376'> +0.0000000e+00 </wgt>
<wgt id='1377'> +0.0000000e+00 </wgt>
<wgt id='1378'> +0.0000000e+00 </wgt>
<wgt id='1379'> +0.0000000e+00 </wgt>
<wgt id='1380'> +0.0000000e+00 </wgt>
<wgt id='1381'> +0.0000000e+00 </wgt>
<wgt id='1382'> +0.0000000e+00 </wgt>
<wgt id='1383'> +0.0000000e+00 </wgt>
<wgt id='1384'> +0.0000000e+00 </wgt>
<wgt id='1385'> +0.0000000e+00 </wgt>
<wgt id='1386'> +0.0000000e+00 </wgt>
<wgt id='1387'> +0.0000000e+00 </wgt>
<wgt id='1388'> +0.0000000e+00 </wgt>
<wgt id='1389'> +0.0000000e+00 </wgt>
<wgt id='1390'> +0.0000000e+00 </wgt>
<wgt id='1391'> +0.0000000e+00 </wgt>
<wgt id='1392'> +0.0000000e+00 </wgt>
<wgt id='1393'> +0.0000000e+00 </wgt>
<wgt id='1394'> +0.0000000e+00 </wgt>
<wgt id='1395'> +0.0000000e+00 </wgt>
<wgt id='1396'> +0.0000000e+00 </wgt>
<wgt id='1397'> +0.0000000e+00 </wgt>
<wgt id='1398'> +0.0000000e+00 </wgt>
<wgt id='1399'> +0.0000000e+00 </wgt>
<wgt id='1400'> +0.0000000e+00 </wgt>
<wgt id='1401'> +0.0000000e+00 </wgt>
<wgt id='1402'> +0.0000000e+00 </wgt>
<wgt id='1403'> +0.0000000e+00 </wgt>
<wgt id='1404'> +0.0000000e+00 </wgt>
<wgt id='1405'> +0.0000000e+00 </wgt>
<wgt id='1406'> +0.0000000e+00 </wgt>
<wgt id='1407'> +0.0000000e+00 </wgt>
<wgt id='1408'> +0.0000000e+00 </wgt>
<wgt id='1409'> +0.0000000e+00 </wgt>
<wgt id='1410'> +0.0000000e+00 </wgt>
<wgt id='1411'> +0.0000000e+00 </wgt>
<wgt id='1412'> +0.0000000e+00 </wgt>
<wgt id='1413'> +0.0000000e+00 </wgt>
<wgt id='1414'> +0.0000000e+00 </wgt>
<wgt id='1415'> +0.0000000e+00 </wgt>
<wgt id='1416'> +0.0000000e+00 </wgt>
<wgt id='1417'> +0.0000000e+00 </wgt>
<wgt id='1418'> +0.0000000e+00 </wgt>
<wgt id='1419'> +0.0000000e+00 </wgt>
<wgt id='1420'> +0.0000000e+00 </wgt>
<wgt id='1421'> +0.0000000e+00 </wgt>
<wgt id='1422'> +0.0000000e+00 </wgt>
<wgt id='1423'> +0.0000000e+00 </wgt>
<wgt id='1424'> +0.0000000e+00 </wgt>
<wgt id='1425'> +0.0000000e+00 </wgt>
<wgt id='1426'> +0.0000000e+00 </wgt>
<wgt id='1427'> +0.0000000e+00 </wgt>
<wgt id='1428'> +0.0000000e+00 </wgt>
<wgt id='1429'> +0.0000000e+00 </wgt>
<wgt id='1430'> +0.0000000e+00 </wgt>
<wgt id='1431'> +0.0000000e+00 </wgt>
<wgt id='1432'> +0.0000000e+00 </wgt>
<wgt id='1433'> +0.0000000e+00 </wgt>
<wgt id='1434'> +0.0000000e+00 </wgt>
<wgt id='1435'> +0.0000000e+00 </wgt>
<wgt id='1436'> +0.0000000e+00 </wgt>
<wgt id='1437'> +0.0000000e+00 </wgt>
<wgt id='1438'> +0.0000000e+00 </wgt>
<wgt id='1439'> +0.0000000e+00 </wgt>
<wgt id='1440'> +0.0000000e+00 </wgt>
<wgt id='1441'> +0.0000000e+00 </wgt>
<wgt id='1442'> +0.0000000e+00 </wgt>
<wgt id='1443'> +0.0000000e+00 </wgt>
<wgt id='1444'> +0.0000000e+00 </wgt>
<wgt id='1445'> +0.0000000e+00 </wgt>
<wgt id='1446'> +0.0000000e+00 </wgt>
<wgt id='1447'> +0.0000000e+00 </wgt>
<wgt id='1448'> +0.0000000e+00 </wgt>
<wgt id='1449'> +0.0000000e+00 </wgt>
<wgt id='1450'> +0.0000000e+00 </wgt>
<wgt id='1451'> +0.0000000e+00 </wgt>
<wgt id='1452'> +0.0000000e+00 </wgt>
<wgt id='1453'> +0.0000000e+00 </wgt>
<wgt id='1454'> +0.0000000e+00 </wgt>
<wgt id='1455'> +0.0000000e+00 </wgt>
<wgt id='1456'> +0.0000000e+00 </wgt>
<wgt id='1457'> +0.0000000e+00 </wgt>
<wgt id='1458'> +0.0000000e+00 </wgt>
<wgt id='1459'> +0.0000000e+00 </wgt>
<wgt id='1460'> +0.0000000e+00 </wgt>
<wgt id='1461'> +0.0000000e+00 </wgt>
<wgt id='1462'> +0.0000000e+00 </wgt>
<wgt id='1463'> +0.0000000e+00 </wgt>
<wgt id='1464'> +0.0000000e+00 </wgt>
<wgt id='1465'> +0.0000000e+00 </wgt>
<wgt id='1466'> +0.0000000e+00 </wgt>
<wgt id='1467'> +0.0000000e+00 </wgt>
<wgt id='1468'> +0.0000000e+00 </wgt>
<wgt id='1469'> +0.0000000e+00 </wgt>
<wgt id='1470'> +0.0000000e+00 </wgt>
<wgt id='1471'> +0.0000000e+00 </wgt>
<wgt id='1472'> +0.0000000e+00 </wgt>
<wgt id='1473'> +0.0000000e+00 </wgt>
<wgt id='1474'> +0.0000000e+00 </wgt>
<wgt id='1475'> +0.0000000e+00 </wgt>
<wgt id='1476'> +0.0000000e+00 </wgt>
<wgt id='1477'> +0.0000000e+00 </wgt>
<wgt id='1478'> +0.0000000e+00 </wgt>
<wgt id='1479'> +0.0000000e+00 </wgt>
<wgt id='1480'> +0.0000000e+00 </wgt>
<wgt id='1481'> +0.0000000e+00 </wgt>
<wgt id='1482'> +0.0000000e+00 </wgt>
<wgt id='1483'> +0.0000000e+00 </wgt>
<wgt id='1484'> +0.0000000e+00 </wgt>
<wgt id='1485'> +0.0000000e+00 </wgt>
<wgt id='1486'> +0.0000000e+00 </wgt>
<wgt id='1487'> +0.0000000e+00 </wgt>
<wgt id='1488'> +0.0000000e+00 </wgt>
<wgt id='1489'> +0.0000000e+00 </wgt>
<wgt id='1490'> +0.0000000e+00 </wgt>
<wgt id='1491'> +0.0000000e+00 </wgt>
<wgt id='1492'> +0.0000000e+00 </wgt>
<wgt id='1493'> +0.0000000e+00 </wgt>
<wgt id='1494'> +0.0000000e+00 </wgt>
<wgt id='1495'> +0.0000000e+00 </wgt>
<wgt id='1496'> +0.0000000e+00 </wgt>
<wgt id='1497'> +0.0000000e+00 </wgt>
<wgt id='1498'> +0.0000000e+00 </wgt>
<wgt id='1499'> +0.0000000e+00 </wgt>
<wgt id='1500'> +0.0000000e+00 </wgt>
<wgt id='1501'> +0.0000000e+00 </wgt>
<wgt id='1502'> +0.0000000e+00 </wgt>
<wgt id='1503'> +0.0000000e+00 </wgt>
<wgt id='1504'> +0.0000000e+00 </wgt>
<wgt id='1505'> +0.0000000e+00 </wgt>
<wgt id='1506'> +0.0000000e+00 </wgt>
<wgt id='1507'> +0.0000000e+00 </wgt>
<wgt id='1508'> +0.0000000e+00 </wgt>
<wgt id='1509'> +0.0000000e+00 </wgt>
<wgt id='1510'> +0.0000000e+00 </wgt>
<wgt id='1511'> +0.0000000e+00 </wgt>
<wgt id='1512'> +0.0000000e+00 </wgt>
<wgt id='1513'> +0.0000000e+00 </wgt>
<wgt id='1514'> +0.0000000e+00 </wgt>
<wgt id='1515'> +0.0000000e+00 </wgt>
<wgt id='1516'> +0.0000000e+00 </wgt>
<wgt id='1517'> +0.0000000e+00 </wgt>
<wgt id='1518'> +0.0000000e+00 </wgt>
<wgt id='1519'> +0.0000000e+00 </wgt>
<wgt id='1520'> +0.0000000e+00 </wgt>
<wgt id='1521'> +0.0000000e+00 </wgt>
<wgt id='1522'> +0.0000000e+00 </wgt>
<wgt id='1523'> +0.0000000e+00 </wgt>
<wgt id='1524'> +0.0000000e+00 </wgt>
<wgt id='1525'> +0.0000000e+00 </wgt>
<wgt id='1526'> +0.0000000e+00 </wgt>
<wgt id='1527'> +0.0000000e+00 </wgt>
<wgt id='1528'> +0.0000000e+00 </wgt>
<wgt id='1529'> +0.0000000e+00 </wgt>
<wgt id='1530'> +0.0000000e+00 </wgt>
<wgt id='1531'> +0.0000000e+00 </wgt>
<wgt id='1532'> +0.0000000e+00 </wgt>
<wgt id='1533'> +0.0000000e+00 </wgt>
<wgt id='1534'> +0.0000000e+00 </wgt>
<wgt id='1535'> +0.0000000e+00 </wgt>
<wgt id='1536'> +0.0000000e+00 </wgt>
<wgt id='1537'> +0.0000000e+00 </wgt>
<wgt id='1538'> +0.0000000e+00 </wgt>
<wgt id='1539'> +0.0000000e+00 </wgt>
<wgt id='1540'> +0.0000000e+00 </wgt>
<wgt id='1541'> +0.0000000e+00 </wgt>
<wgt id='1542'> +0.0000000e+00 </wgt>
<wgt id='1543'> +0.0000000e+00 </wgt>
<wgt id='1544'> +0.0000000e+00 </wgt>
<wgt id='1545'> +0.0000000e+00 </wgt>
<wgt id='1546'> +0.0000000e+00 </wgt>
<wgt id='1547'> +0.0000000e+00 </wgt>
<wgt id='1548'> +0.0000000e+00 </wgt>
<wgt id='1549'> +0.0000000e+00 </wgt>
<wgt id='1550'> +0.0000000e+00 </wgt>
<wgt id='1551'> +0.0000000e+00 </wgt>
<wgt id='1552'> +0.0000000e+00 </wgt>
<wgt id='1553'> +0.0000000e+00 </wgt>
<wgt id='1554'> +0.0000000e+00 </wgt>
<wgt id='1555'> +0.0000000e+00 </wgt>
<wgt id='1556'> +0.0000000e+00 </wgt>
<wgt id='1557'> +0.0000000e+00 </wgt>
<wgt id='1558'> +0.0000000e+00 </wgt>
<wgt id='1559'> +0.0000000e+00 </wgt>
<wgt id='1560'> +0.0000000e+00 </wgt>
<wgt id='1561'> +0.0000000e+00 </wgt>
<wgt id='1562'> +0.0000000e+00 </wgt>
<wgt id='1563'> +0.0000000e+00 </wgt>
<wgt id='1564'> +0.0000000e+00 </wgt>
<wgt id='1565'> +0.0000000e+00 </wgt>
<wgt id='1566'> +0.0000000e+00 </wgt>
<wgt id='1567'> +0.0000000e+00 </wgt>
<wgt id='1568'> +0.0000000e+00 </wgt>
<wgt id='1569'> +0.0000000e+00 </wgt>
<wgt id='1570'> +0.0000000e+00 </wgt>
<wgt id='1571'> +0.0000000e+00 </wgt>
<wgt id='1572'> +0.0000000e+00 </wgt>
<wgt id='1573'> +0.0000000e+00 </wgt>
<wgt id='1574'> +0.0000000e+00 </wgt>
<wgt id='1575'> +0.0000000e+00 </wgt>
<wgt id='1576'> +0.0000000e+00 </wgt>
<wgt id='1577'> +0.0000000e+00 </wgt>
<wgt id='1578'> +0.0000000e+00 </wgt>
<wgt id='1579'> +0.0000000e+00 </wgt>
<wgt id='1580'> +0.0000000e+00 </wgt>
<wgt id='1581'> +0.0000000e+00 </wgt>
<wgt id='1582'> +0.0000000e+00 </wgt>
<wgt id='1583'> +0.0000000e+00 </wgt>
<wgt id='1584'> +0.0000000e+00 </wgt>
<wgt id='1585'> +0.0000000e+00 </wgt>
<wgt id='1586'> +0.0000000e+00 </wgt>
<wgt id='1587'> +0.0000000e+00 </wgt>
<wgt id='1588'> +0.0000000e+00 </wgt>
<wgt id='1589'> +0.0000000e+00 </wgt>
<wgt id='1590'> +0.0000000e+00 </wgt>
<wgt id='1591'> +0.0000000e+00 </wgt>
<wgt id='1592'> +0.0000000e+00 </wgt>
<wgt id='1593'> +0.0000000e+00 </wgt>
<wgt id='1594'> +0.0000000e+00 </wgt>
<wgt id='1595'> +0.0000000e+00 </wgt>
<wgt id='1596'> +0.0000000e+00 </wgt>
<wgt id='1597'> +0.0000000e+00 </wgt>
<wgt id='1598'> +0.0000000e+00 </wgt>
<wgt id='1599'> +0.0000000e+00 </wgt>
<wgt id='1600'> +0.0000000e+00 </wgt>
<wgt id='1601'> +0.0000000e+00 </wgt>
<wgt id='1602'> +0.0000000e+00 </wgt>
<wgt id='1603'> +0.0000000e+00 </wgt>
<wgt id='1604'> +0.0000000e+00 </wgt>
<wgt id='1605'> +0.0000000e+00 </wgt>
<wgt id='1606'> +0.0000000e+00 </wgt>
<wgt id='1607'> +0.0000000e+00 </wgt>
<wgt id='1608'> +0.0000000e+00 </wgt>
<wgt id='1609'> +0.0000000e+00 </wgt>
<wgt id='1610'> +0.0000000e+00 </wgt>
<wgt id='1611'> +0.0000000e+00 </wgt>
<wgt id='1612'> +1.5698725e-04 </wgt>
<wgt id='1613'> +1.5690025e-04 </wgt>
<wgt id='1614'> +1.5670131e-04 </wgt>
<wgt id='1615'> +1.5656379e-04 </wgt>
<wgt id='1616'> +1.5732491e-04 </wgt>
<wgt id='1617'> +1.5714016e-04 </wgt>
<wgt id='1618'> +1.5698869e-04 </wgt>
<wgt id='1619'> +1.5696481e-04 </wgt>
<wgt id='1620'> +1.5671785e-04 </wgt>
<wgt id='1621'> +1.5722186e-04 </wgt>
<wgt id='1622'> +1.5681455e-04 </wgt>
<wgt id='1623'> +1.5630315e-04 </wgt>
<wgt id='1624'> +1.5642723e-04 </wgt>
<wgt id='1625'> +1.5600828e-04 </wgt>
<wgt id='1626'> +1.5677394e-04 </wgt>
<wgt id='1627'> +1.5648474e-04 </wgt>
<wgt id='1628'> +1.5746755e-04 </wgt>
<wgt id='1629'> +1.5717821e-04 </wgt>
<wgt id='1630'> +1.5650216e-04 </wgt>
<wgt id='1631'> +1.5732506e-04 </wgt>
<wgt id='1632'> +1.5689442e-04 </wgt>
<wgt id='1633'> +1.5730254e-04 </wgt>
<wgt id='1634'> +1.5710755e-04 </wgt>
<wgt id='1635'> +1.5715440e-04 </wgt>
<wgt id='1636'> +1.5650292e-04 </wgt>
<wgt id='1637'> +1.5726116e-04 </wgt>
<wgt id='1638'> +1.5720819e-04 </wgt>
<wgt id='1639'> +1.5699861e-04 </wgt>
<wgt id='1640'> +1.5681219e-04 </wgt>
<wgt id='1641'> +1.5692442e-04 </wgt>
<wgt id='1642'> +1.5694825e-04 </wgt>
<wgt id='1643'> +1.5687128e-04 </wgt>
<wgt id='1644'> +1.5688136e-04 </wgt>
<wgt id='1645'> +1.5672306e-04 </wgt>
<wgt id='1646'> +1.5678761e-04 </wgt>
<wgt id='1647'> +1.5705054e-04 </wgt>
<wgt id='1648'> +1.5715046e-04 </wgt>
<wgt id='1649'> +1.5656142e-04 </wgt>
<wgt id='1650'> +1.5674566e-04 </wgt>
<wgt id='1651'> +1.5725519e-04 </wgt>
<wgt id='1652'> +1.5774416e-04 </wgt>
<wgt id='1653'> +1.5769112e-04 </wgt>
<wgt id='1654'> +1.5679233e-04 </wgt>
<wgt id='1655'> +1.5594561e-04 </wgt>
<wgt id='1656'> +1.5658658e-04 </wgt>
<wgt id='1657'> +1.5690146e-04 </wgt>
<wgt id='1658'> +1.5771794e-04 </wgt>
<wgt id='1659'> +1.5778017e-04 </wgt>
<wgt id='1660'> +1.5603838e-04 </wgt>
<wgt id='1661'> +1.5652574e-04 </wgt>
<wgt id='1662'> +1.5718404e-04 </wgt>
<wgt id='1663'> +1.5690068e-04 </wgt>
<wgt id='1664'> +1.5701835e-04 </wgt>
<wgt id='1665'> +1.5726346e-04 </wgt>
<wgt id='1666'> +1.5734842e-04 </wgt>
<wgt id='1667'> +1.5713925e-04 </wgt>
<wgt id='1668'> +1.5661546e-04 </wgt>
<wgt id='1669'> +1.5665051e-04 </wgt>
<wgt id='1670'> +1.5651515e-04 </wgt>
<wgt id='1671'> +1.5699302e-04 </wgt>
<wgt id='1672'> +1.5700561e-04 </wgt>
<wgt id='1673'> +1.5699580e-04 </wgt>
<wgt id='1674'> +1.5677951e-04 </wgt>
<wgt id='1675'> +1.5697296e-04 </wgt>
<wgt id='1676'> +1.5674103e-04 </wgt>
<wgt id='1677'> +1.5688854e-04 </wgt>
<wgt id='1678'> +1.5750882e-04 </wgt>
<wgt id='1679'> +1.5712592e-04 </wgt>
<wgt id='1680'> +1.5739752e-04 </wgt>
<wgt id='1681'> +1.5716950e-04 </wgt>
<wgt id='1682'> +1.5638178e-04 </wgt>
<wgt id='1683'> +1.5674182e-04 </wgt>
<wgt id='1684'> +1.5701385e-04 </wgt>
<wgt id='1685'> +1.5626608e-04 </wgt>
<wgt id='1686'> +1.5663149e-04 </wgt>
<wgt id='1687'> +1.5650747e-04 </wgt>
<wgt id='1688'> +1.5724299e-04 </wgt>
<wgt id='1689'> +1.5632262e-04 </wgt>
<wgt id='1690'> +1.5727921e-04 </wgt>
<wgt id='1691'> +1.5727658e-04 </wgt>
<wgt id='1692'> +1.5716325e-04 </wgt>
<wgt id='1693'> +1.5727097e-04 </wgt>
<wgt id='1694'> +1.5742498e-04 </wgt>
<wgt id='1695'> +1.5708072e-04 </wgt>
<wgt id='1696'> +1.5677630e-04 </wgt>
<wgt id='1697'> +1.5710692e-04 </wgt>
<wgt id='1698'> +1.5698521e-04 </wgt>
<wgt id='1699'> +1.5675319e-04 </wgt>
<wgt id='1700'> +1.5703056e-04 </wgt>
<wgt id='1701'> +1.5693602e-04 </wgt>
<wgt id='1702'> +1.5705407e-04 </wgt>
<wgt id='1703'> +1.5690579e-04 </wgt>
<wgt id='1704'> +1.5689221e-04 </wgt>
<wgt id='1705'> +1.5712987e-04 </wgt>
<wgt id='1706'> +1.5680663e-04 </wgt>
<wgt id='1707'> +1.5708524e-04 </wgt>
<wgt id='1708'> +1.5672559e-04 </wgt>
<wgt id='1709'> +1.5734863e-04 </wgt>
<wgt id='1710'> +1.5681083e-04 </wgt>
<wgt id='1711'> +1.5698107e-04 </wgt>
<wgt id='1712'> +1.5689253e-04 </wgt>
<wgt id='1713'> +1.5243364e-04 </wgt>
<wgt id='1714'> +1.6272713e-04 </wgt>
<wgt id='1715'> +0.0000000e+00 </wgt>
<wgt id='1716'> +0.0000000e+00 </wgt>
<wgt id='1717'> +0.0000000e+00 </wgt>
<wgt id='1718'> +0.0000000e+00 </wgt>
<wgt id='1719'> +0.0000000e+00 </wgt>
<wgt id='1720'> +0.0000000e+00 </wgt>
<wgt id='1721'> +0.0000000e+00 </wgt>
<wgt id='1722'> +0.0000000e+00 </wgt>
<wgt id='1723'> +0.0000000e+00 </wgt>
<wgt id='1724'> +0.0000000e+00 </wgt>
<wgt id='1725'> +0.0000000e+00 </wgt>
<wgt id='1726'> +0.0000000e+00 </wgt>
<wgt id='1727'> +0.0000000e+00 </wgt>
<wgt id='1728'> +0.0000000e+00 </wgt>
<wgt id='1729'> +0.0000000e+00 </wgt>
<wgt id='1730'> +0.0000000e+00 </wgt>
<wgt id='1731'> +0.0000000e+00 </wgt>
<wgt id='1732'> +0.0000000e+00 </wgt>
<wgt id='1733'> +0.0000000e+00 </wgt>
<wgt id='1734'> +0.0000000e+00 </wgt>
<wgt id='1735'> +0.0000000e+00 </wgt>
<wgt id='1736'> +0.0000000e+00 </wgt>
<wgt id='1737'> +0.0000000e+00 </wgt>
<wgt id='1738'> +0.0000000e+00 </wgt>
<wgt id='1739'> +0.0000000e+00 </wgt>
<wgt id='1740'> +0.0000000e+00 </wgt>
<wgt id='1741'> +0.0000000e+00 </wgt>
<wgt id='1742'> +0.0000000e+00 </wgt>
<wgt id='1743'> +0.0000000e+00 </wgt>
<wgt id='1744'> +0.0000000e+00 </wgt>
<wgt id='1745'> +0.0000000e+00 </wgt>
<wgt id='1746'> +0.0000000e+00 </wgt>
<wgt id='1747'> +0.0000000e+00 </wgt>
<wgt id='1748'> +0.0000000e+00 </wgt>
<wgt id='1749'> +0.0000000e+00 </wgt>
<wgt id='1750'> +0.0000000e+00 </wgt>
<wgt id='1751'> +0.0000000e+00 </wgt>
<wgt id='1752'> +0.0000000e+00 </wgt>
<wgt id='1753'> +0.0000000e+00 </wgt>
<wgt id='1754'> +0.0000000e+00 </wgt>
<wgt id='1755'> +0.0000000e+00 </wgt>
<wgt id='1756'> +0.0000000e+00 </wgt>
<wgt id='1757'> +0.0000000e+00 </wgt>
<wgt id='1758'> +0.0000000e+00 </wgt>
<wgt id='1759'> +0.0000000e+00 </wgt>
<wgt id='1760'> +0.0000000e+00 </wgt>
<wgt id='1761'> +0.0000000e+00 </wgt>
<wgt id='1762'> +0.0000000e+00 </wgt>
<wgt id='1763'> +0.0000000e+00 </wgt>
<wgt id='1764'> +0.0000000e+00 </wgt>
<wgt id='1765'> +0.0000000e+00 </wgt>
<wgt id='1766'> +0.0000000e+00 </wgt>
<wgt id='1767'> +0.0000000e+00 </wgt>
<wgt id='1768'> +0.0000000e+00 </wgt>
<wgt id='1769'> +0.0000000e+00 </wgt>
<wgt id='1770'> +0.0000000e+00 </wgt>
<wgt id='1771'> +0.0000000e+00 </wgt>
<wgt id='1772'> +0.0000000e+00 </wgt>
<wgt id='1773'> +0.0000000e+00 </wgt>
<wgt id='1774'> +0.0000000e+00 </wgt>
<wgt id='1775'> +0.0000000e+00 </wgt>
<wgt id='1776'> +0.0000000e+00 </wgt>
<wgt id='1777'> +0.0000000e+00 </wgt>
<wgt id='1778'> +0.0000000e+00 </wgt>
<wgt id='1779'> +0.0000000e+00 </wgt>
<wgt id='1780'> +0.0000000e+00 </wgt>
<wgt id='1781'> +0.0000000e+00 </wgt>
<wgt id='1782'> +0.0000000e+00 </wgt>
<wgt id='1783'> +0.0000000e+00 </wgt>
<wgt id='1784'> +0.0000000e+00 </wgt>
<wgt id='1785'> +0.0000000e+00 </wgt>
<wgt id='1786'> +0.0000000e+00 </wgt>
<wgt id='1787'> +0.0000000e+00 </wgt>
<wgt id='1788'> +0.0000000e+00 </wgt>
<wgt id='1789'> +0.0000000e+00 </wgt>
<wgt id='1790'> +0.0000000e+00 </wgt>
<wgt id='1791'> +0.0000000e+00 </wgt>
<wgt id='1792'> +0.0000000e+00 </wgt>
<wgt id='1793'> +0.0000000e+00 </wgt>
<wgt id='1794'> +0.0000000e+00 </wgt>
<wgt id='1795'> +0.0000000e+00 </wgt>
<wgt id='1796'> +0.0000000e+00 </wgt>
<wgt id='1797'> +0.0000000e+00 </wgt>
<wgt id='1798'> +0.0000000e+00 </wgt>
<wgt id='1799'> +0.0000000e+00 </wgt>
<wgt id='1800'> +0.0000000e+00 </wgt>
<wgt id='1801'> +0.0000000e+00 </wgt>
<wgt id='1802'> +0.0000000e+00 </wgt>
<wgt id='1803'> +0.0000000e+00 </wgt>
<wgt id='1804'> +0.0000000e+00 </wgt>
<wgt id='1805'> +0.0000000e+00 </wgt>
<wgt id='1806'> +0.0000000e+00 </wgt>
<wgt id='1807'> +0.0000000e+00 </wgt>
<wgt id='1808'> +0.0000000e+00 </wgt>
<wgt id='1809'> +0.0000000e+00 </wgt>
<wgt id='1810'> +0.0000000e+00 </wgt>
<wgt id='1811'> +0.0000000e+00 </wgt>
<wgt id='1812'> +0.0000000e+00 </wgt>
<wgt id='1813'> +0.0000000e+00 </wgt>
<wgt id='1814'> +0.0000000e+00 </wgt>
<wgt id='1815'> +0.0000000e+00 </wgt>
<wgt id='1816'> +0.0000000e+00 </wgt>
<wgt id='1817'> +0.0000000e+00 </wgt>
<wgt id='1818'> +0.0000000e+00 </wgt>
<wgt id='1819'> +0.0000000e+00 </wgt>
<wgt id='1820'> +0.0000000e+00 </wgt>
<wgt id='1821'> +0.0000000e+00 </wgt>
<wgt id='1822'> +0.0000000e+00 </wgt>
<wgt id='1823'> +0.0000000e+00 </wgt>
<wgt id='1824'> +0.0000000e+00 </wgt>
<wgt id='1825'> +0.0000000e+00 </wgt>
<wgt id='1826'> +0.0000000e+00 </wgt>
<wgt id='1827'> +0.0000000e+00 </wgt>
<wgt id='1828'> +0.0000000e+00 </wgt>
<wgt id='1829'> +0.0000000e+00 </wgt>
<wgt id='1830'> +0.0000000e+00 </wgt>
<wgt id='1831'> +0.0000000e+00 </wgt>
<wgt id='1832'> +0.0000000e+00 </wgt>
<wgt id='1833'> +0.0000000e+00 </wgt>
<wgt id='1834'> +0.0000000e+00 </wgt>
<wgt id='1835'> +0.0000000e+00 </wgt>
<wgt id='1836'> +0.0000000e+00 </wgt>
<wgt id='1837'> +0.0000000e+00 </wgt>
<wgt id='1838'> +0.0000000e+00 </wgt>
<wgt id='1839'> +0.0000000e+00 </wgt>
<wgt id='1840'> +0.0000000e+00 </wgt>
<wgt id='1841'> +0.0000000e+00 </wgt>
<wgt id='1842'> +0.0000000e+00 </wgt>
<wgt id='1843'> +0.0000000e+00 </wgt>
<wgt id='1844'> +0.0000000e+00 </wgt>
<wgt id='1845'> +0.0000000e+00 </wgt>
<wgt id='1846'> +0.0000000e+00 </wgt>
<wgt id='1847'> +0.0000000e+00 </wgt>
<wgt id='1848'> +0.0000000e+00 </wgt>
<wgt id='1849'> +0.0000000e+00 </wgt>
<wgt id='1850'> +0.0000000e+00 </wgt>
<wgt id='1851'> +0.0000000e+00 </wgt>
<wgt id='1852'> +0.0000000e+00 </wgt>
<wgt id='1853'> +0.0000000e+00 </wgt>
<wgt id='1854'> +0.0000000e+00 </wgt>
<wgt id='1855'> +0.0000000e+00 </wgt>
<wgt id='1856'> +0.0000000e+00 </wgt>
<wgt id='1857'> +0.0000000e+00 </wgt>
<wgt id='1858'> +0.0000000e+00 </wgt>
<wgt id='1859'> +0.0000000e+00 </wgt>
<wgt id='1860'> +0.0000000e+00 </wgt>
<wgt id='1861'> +0.0000000e+00 </wgt>
<wgt id='1862'> +0.0000000e+00 </wgt>
<wgt id='1863'> +0.0000000e+00 </wgt>
<wgt id='1864'> +0.0000000e+00 </wgt>
<wgt id='1865'> +0.0000000e+00 </wgt>
<wgt id='1866'> +0.0000000e+00 </wgt>
<wgt id='1867'> +0.0000000e+00 </wgt>
<wgt id='1868'> +0.0000000e+00 </wgt>
<wgt id='1869'> +0.0000000e+00 </wgt>
<wgt id='1870'> +0.0000000e+00 </wgt>
<wgt id='1871'> +0.0000000e+00 </wgt>
<wgt id='1872'> +0.0000000e+00 </wgt>
<wgt id='1873'> +0.0000000e+00 </wgt>
<wgt id='1874'> +0.0000000e+00 </wgt>
<wgt id='1875'> +0.0000000e+00 </wgt>
<wgt id='1876'> +0.0000000e+00 </wgt>
<wgt id='1877'> +0.0000000e+00 </wgt>
<wgt id='1878'> +0.0000000e+00 </wgt>
<wgt id='1879'> +0.0000000e+00 </wgt>
<wgt id='1880'> +0.0000000e+00 </wgt>
<wgt id='1881'> +0.0000000e+00 </wgt>
<wgt id='1882'> +0.0000000e+00 </wgt>
<wgt id='1883'> +0.0000000e+00 </wgt>
<wgt id='1884'> +0.0000000e+00 </wgt>
<wgt id='1885'> +0.0000000e+00 </wgt>
<wgt id='1886'> +0.0000000e+00 </wgt>
<wgt id='1887'> +0.0000000e+00 </wgt>
<wgt id='1888'> +0.0000000e+00 </wgt>
<wgt id='1889'> +0.0000000e+00 </wgt>
<wgt id='1890'> +0.0000000e+00 </wgt>
<wgt id='1891'> +0.0000000e+00 </wgt>
<wgt id='1892'> +0.0000000e+00 </wgt>
<wgt id='1893'> +0.0000000e+00 </wgt>
<wgt id='1894'> +0.0000000e+00 </wgt>
<wgt id='1895'> +0.0000000e+00 </wgt>
<wgt id='1896'> +0.0000000e+00 </wgt>
<wgt id='1897'> +0.0000000e+00 </wgt>
<wgt id='1898'> +0.0000000e+00 </wgt>
<wgt id='1899'> +0.0000000e+00 </wgt>
<wgt id='1900'> +0.0000000e+00 </wgt>
<wgt id='1901'> +0.0000000e+00 </wgt>
<wgt id='1902'> +0.0000000e+00 </wgt>
<wgt id='1903'> +0.0000000e+00 </wgt>
<wgt id='1904'> +0.0000000e+00 </wgt>
<wgt id='1905'> +0.0000000e+00 </wgt>
<wgt id='1906'> +0.0000000e+00 </wgt>
<wgt id='1907'> +0.0000000e+00 </wgt>
<wgt id='1908'> +0.0000000e+00 </wgt>
<wgt id='1909'> +0.0000000e+00 </wgt>
<wgt id='1910'> +0.0000000e+00 </wgt>
<wgt id='1911'> +0.0000000e+00 </wgt>
<wgt id='1912'> +0.0000000e+00 </wgt>
<wgt id='1913'> +0.0000000e+00 </wgt>
<wgt id='1914'> +0.0000000e+00 </wgt>
<wgt id='1915'> +0.0000000e+00 </wgt>
<wgt id='1916'> +0.0000000e+00 </wgt>
<wgt id='1917'> +0.0000000e+00 </wgt>
<wgt id='1918'> +0.0000000e+00 </wgt>
<wgt id='1919'> +0.0000000e+00 </wgt>
<wgt id='1920'> +0.0000000e+00 </wgt>
<wgt id='1921'> +0.0000000e+00 </wgt>
<wgt id='1922'> +0.0000000e+00 </wgt>
<wgt id='1923'> +0.0000000e+00 </wgt>
<wgt id='1924'> +0.0000000e+00 </wgt>
<wgt id='1925'> +0.0000000e+00 </wgt>
<wgt id='1926'> +0.0000000e+00 </wgt>
<wgt id='1927'> +0.0000000e+00 </wgt>
<wgt id='1928'> +0.0000000e+00 </wgt>
<wgt id='1929'> +0.0000000e+00 </wgt>
<wgt id='1930'> +0.0000000e+00 </wgt>
<wgt id='1931'> +0.0000000e+00 </wgt>
<wgt id='1932'> +0.0000000e+00 </wgt>
<wgt id='1933'> +0.0000000e+00 </wgt>
<wgt id='1934'> +0.0000000e+00 </wgt>
<wgt id='1935'> +0.0000000e+00 </wgt>
<wgt id='1936'> +0.0000000e+00 </wgt>
<wgt id='1937'> +0.0000000e+00 </wgt>
<wgt id='1938'> +0.0000000e+00 </wgt>
<wgt id='1939'> +0.0000000e+00 </wgt>
<wgt id='1940'> +0.0000000e+00 </wgt>
<wgt id='1941'> +0.0000000e+00 </wgt>
<wgt id='1942'> +0.0000000e+00 </wgt>
<wgt id='1943'> +0.0000000e+00 </wgt>
<wgt id='1944'> +0.0000000e+00 </wgt>
<wgt id='1945'> +0.0000000e+00 </wgt>
<wgt id='1946'> +0.0000000e+00 </wgt>
<wgt id='1947'> +0.0000000e+00 </wgt>
<wgt id='1948'> +0.0000000e+00 </wgt>
<wgt id='1949'> +0.0000000e+00 </wgt>
<wgt id='1950'> +0.0000000e+00 </wgt>
<wgt id='1951'> +0.0000000e+00 </wgt>
<wgt id='1952'> +0.0000000e+00 </wgt>
<wgt id='1953'> +0.0000000e+00 </wgt>
<wgt id='1954'> +0.0000000e+00 </wgt>
<wgt id='1955'> +0.0000000e+00 </wgt>
<wgt id='1956'> +0.0000000e+00 </wgt>
<wgt id='1957'> +0.0000000e+00 </wgt>
<wgt id='1958'> +0.0000000e+00 </wgt>
<wgt id='1959'> +0.0000000e+00 </wgt>
<wgt id='1960'> +0.0000000e+00 </wgt>
<wgt id='1961'> +0.0000000e+00 </wgt>
<wgt id='1962'> +0.0000000e+00 </wgt>
<wgt id='1963'> +0.0000000e+00 </wgt>
<wgt id='1964'> +0.0000000e+00 </wgt>
<wgt id='1965'> +0.0000000e+00 </wgt>
<wgt id='1966'> +0.0000000e+00 </wgt>
<wgt id='1967'> +0.0000000e+00 </wgt>
<wgt id='1968'> +0.0000000e+00 </wgt>
<wgt id='1969'> +0.0000000e+00 </wgt>
<wgt id='1970'> +0.0000000e+00 </wgt>
<wgt id='1971'> +0.0000000e+00 </wgt>
<wgt id='1972'> +0.0000000e+00 </wgt>
<wgt id='1973'> +0.0000000e+00 </wgt>
<wgt id='1974'> +0.0000000e+00 </wgt>
<wgt id='1975'> +0.0000000e+00 </wgt>
<wgt id='1976'> +0.0000000e+00 </wgt>
<wgt id='1977'> +0.0000000e+00 </wgt>
<wgt id='1978'> +0.0000000e+00 </wgt>
<wgt id='1979'> +0.0000000e+00 </wgt>
<wgt id='1980'> +0.0000000e+00 </wgt>
<wgt id='1981'> +0.0000000e+00 </wgt>
<wgt id='1982'> +0.0000000e+00 </wgt>
<wgt id='1983'> +0.0000000e+00 </wgt>
<wgt id='1984'> +0.0000000e+00 </wgt>
<wgt id='1985'> +0.0000000e+00 </wgt>
<wgt id='1986'> +0.0000000e+00 </wgt>
<wgt id='1987'> +0.0000000e+00 </wgt>
<wgt id='1988'> +0.0000000e+00 </wgt>
<wgt id='1989'> +0.0000000e+00 </wgt>
<wgt id='1990'> +0.0000000e+00 </wgt>
<wgt id='1991'> +0.0000000e+00 </wgt>
<wgt id='1992'> +0.0000000e+00 </wgt>
<wgt id='1993'> +0.0000000e+00 </wgt>
<wgt id='1994'> +0.0000000e+00 </wgt>
<wgt id='1995'> +0.0000000e+00 </wgt>
<wgt id='1996'> +0.0000000e+00 </wgt>
<wgt id='1997'> +0.0000000e+00 </wgt>
<wgt id='1998'> +0.0000000e+00 </wgt>
<wgt id='1999'> +0.0000000e+00 </wgt>
<wgt id='2000'> +0.0000000e+00 </wgt>
<wgt id='2001'> +0.0000000e+00 </wgt>
<wgt id='2002'> +0.0000000e+00 </wgt>
<wgt id='2003'> +0.0000000e+00 </wgt>
<wgt id='2004'> +0.0000000e+00 </wgt>
<wgt id='2005'> +0.0000000e+00 </wgt>
<wgt id='2006'> +0.0000000e+00 </wgt>
<wgt id='2007'> +0.0000000e+00 </wgt>
<wgt id='2008'> +0.0000000e+00 </wgt>
<wgt id='2009'> +0.0000000e+00 </wgt>
<wgt id='2010'> +0.0000000e+00 </wgt>
<wgt id='2011'> +0.0000000e+00 </wgt>
<wgt id='2012'> +0.0000000e+00 </wgt>
<wgt id='2013'> +0.0000000e+00 </wgt>
<wgt id='2014'> +0.0000000e+00 </wgt>
<wgt id='2015'> +0.0000000e+00 </wgt>
<wgt id='2016'> +0.0000000e+00 </wgt>
<wgt id='2017'> +0.0000000e+00 </wgt>
<wgt id='2018'> +0.0000000e+00 </wgt>
<wgt id='2019'> +0.0000000e+00 </wgt>
<wgt id='2020'> +0.0000000e+00 </wgt>
<wgt id='2021'> +0.0000000e+00 </wgt>
<wgt id='2022'> +0.0000000e+00 </wgt>
</rwgt>
</event>
<event>
14      2 +1.5732536e-04 4.76809200e+02 7.81860800e-03 1.01555500e-01
        2 -1    0    0  502    0 +0.0000000000e+00 +0.0000000000e+00 +1.2986778418e+03 1.2986778418e+03 2.5500000000e-03 0.0000e+00 -1.0000e+00
       -5 -1    0    0    0  501 +0.0000000000e+00 +0.0000000000e+00 -2.3975181723e+03 2.3975227791e+03 4.7000000000e+00 0.0000e+00 1.0000e+00
        2  1    1    2  502    0 +1.8475257790e+02 -5.8833343743e+01 +1.0737160731e+03 1.0910825280e+03 2.5500000000e-03 0.0000e+00 -1.0000e+00
       24  2    1    2    0    0 +4.8069417461e+01 +1.8748188707e+01 +8.5291076429e+01 1.2906346233e+02 8.1979546928e+01 0.0000e+00 0.0000e+00
        4  1    4    4  503    0 +3.4443190529e+01 -2.3088411386e+01 +1.1330848070e+01 4.3004757086e+01 1.2700000000e+00 0.0000e+00 -1.0000e+00
       -3  1    4    4    0  503 +1.3626226933e+01 +4.1836600093e+01 +7.3960228359e+01 8.6058705241e+01 1.0100000000e-01 0.0000e+00 1.0000e+00
       23  2    1    2    0    0 +2.0398889252e+02 -3.4103879819e+02 -1.0230865361e+03 1.1011472223e+03 8.8883151250e+01 0.0000e+00 0.0000e+00
        1  1    7    7  504    0 +3.5902711564e+01 -1.2696192440e+01 -1.0778811239e+02 1.1431743173e+02 5.0400000000e-03 0.0000e+00 -1.0000e+00
       -1  1    7    7    0  504 +1.6808618096e+02 -3.2834260575e+02 -9.1529842374e+02 9.8682979054e+02 5.0400000000e-03 0.0000e+00 1.0000e+00
       -6  2    1    2    0  501 -4.3681088788e+02 +3.8112395322e+02 -1.2347609439e+03 1.3749074083e+03 1.7226889806e+02 0.0000e+00 0.0000e+00
       -5  1   10   10    0  501 -2.3681549783e+02 +1.3635855382e+02 -4.7152919134e+02 5.4501110401e+02 4.7000000000e+00 0.0000e+00 1.0000e+00
      -24  2   10   10    0    0 -1.9999539005e+02 +2.4476539940e+02 -7.6323175255e+02 8.2989630425e+02 7.9353077549e+01 0.0000e+00 0.0000e+00
        1  1   12   12  505    0 -3.9767197677e+01 +1.8503756841e+01 -1.6175087987e+02 1.6759226173e+02 5.0400000000e-03 0.0000e+00 -1.0000e+00
       -2  1   12   12    0  505 -1.6022819238e+02 +2.2626164256e+02 -6.0148087269e+02 6.6230404252e+02 2.5500000000e-03 0.0000e+00 1.0000e+00
<mgrwt>
<rscale>  0 0.26733894e+03</rscale>
<asrwt>0</asrwt>
<pdfrwt beam="1">  1        2 0.18552541e+00 0.14989247e+03</pdfrwt>
<pdfrwt beam="2">  1       -5 0.34250353e+00 0.47680920e+03</pdfrwt>
<totfact> 0.53059098e-02</totfact>
</mgrwt>
<rwgt>
<wgt id='1001'> +1.5732536e-04 </wgt>
<wgt id='1002'> +1.3427474e-04 </wgt>
<wgt id='1003'> +1.3427443e-04 </wgt>
<wgt id='1004'> +1.4317607e-04 </wgt>
<wgt id='1005'> +1.2182879e-04 </wgt>
<wgt id='1006'> +1.5732536e-04 </wgt>
<wgt id='1007'> +1.3427474e-04 </wgt>
<wgt id='1008'> +1.3427443e-04 </wgt>
<wgt id='1009'> +1.4317607e-04 </wgt>
<wgt id='1010'> +1.2182879e-04 </wgt>
<wgt id='1011'> +1.5732536e-04 </wgt>
<wgt id='1012'> +1.3427474e-04 </wgt>
<wgt id='1013'> +1.3427443e-04 </wgt>
<wgt id='1014'> +1.4317607e-04 </wgt>
<wgt id='1015'> +1.2182879e-04 </wgt>
<wgt id='1016'> +1.4694209e-04 </wgt>
<wgt id='1017'> +1.2563850e-04 </wgt>
<wgt id='1018'> +1.2563819e-04 </wgt>
<wgt id='1019'> +1.3427443e-04 </wgt>
<wgt id='1020'> +1.1410009e-04 </wgt>
<wgt id='1021'> +1.4694209e-04 </wgt>
<wgt id='1022'> +1.2563850e-04 </wgt>
<wgt id='1023'> +1.2563819e-04 </wgt>
<wgt id='1024'> +1.3427443e-04 </wgt>
<wgt id='1025'> +1.1410009e-04 </wgt>
<wgt id='1026'> +1.4694209e-04 </wgt>
<wgt id='1027'> +1.2563850e-04 </wgt>
<wgt id='1028'> +1.2563819e-04 </wgt>
<wgt id='1029'> +1.3427443e-04 </wgt>
<wgt id='1030'> +1.1410009e-04 </wgt>
<wgt id='1031'> +1.6729672e-04 </wgt>
<wgt id='1032'> +1.4317641e-04 </wgt>
<wgt id='1033'> +1.4317607e-04 </wgt>
<wgt id='1034'> +1.5216118e-04 </wgt>
<wgt id='1035'> +1.3027650e-04 </wgt>
<wgt id='1036'> +1.6729672e-04 </wgt>
<wgt id='1037'> +1.4317641e-04 </wgt>
<wgt id='1038'> +1.4317607e-04 </wgt>
<wgt id='1039'> +1.5216118e-04 </wgt>
<wgt id='1040'> +1.3027650e-04 </wgt>
<wgt id='1041'> +1.6729672e-04 </wgt>
<wgt id='1042'> +1.4317641e-04 </wgt>
<wgt id='1043'> +1.4317607e-04 </wgt>
<wgt id='1044'> +1.5216118e-04 </wgt>
<wgt id='1045'> +1.3027650e-04 </wgt>
<wgt id='1046'> +1.5732536e-04 </wgt>
<wgt id='1047'> +1.5732536e-04 </wgt>
<wgt id='1048'> +0.0000000e+00 </wgt>
<wgt id='1049'> +0.0000000e+00 </wgt>
<wgt id='1050'> +0.0000000e+00 </wgt>
<wgt id='1051'> +0.0000000e+00 </wgt>
<wgt id='1052'> +0.0000000e+00 </wgt>
<wgt id='1053'> +0.0000000e+00 </wgt>
<wgt id='1054'> +0.0000000e+00 </wgt>
<wgt id='1055'> +0.0000000e+00 </wgt>
<wgt id='1056'> +0.0000000e+00 </wgt>
<wgt id='1057'> +0.0000000e+00 </wgt>
<wgt id='1058'> +0.0000000e+00 </wgt>
<wgt id='1059'> +0.0000000e+00 </wgt>
<wgt id='1060'> +0.0000000e+00 </wgt>
<wgt id='1061'> +0.0000000e+00 </wgt>
<wgt id='1062'> +0.0000000e+00 </wgt>
<wgt id='1063'> +0.0000000e+00 </wgt>
<wgt id='1064'> +0.0000000e+00 </wgt>
<wgt id='1065'> +0.0000000e+00 </wgt>
<wgt id='1066'> +0.0000000e+00 </wgt>
<wgt id='1067'> +0.0000000e+00 </wgt>
<wgt id='1068'> +0.0000000e+00 </wgt>
<wgt id='1069'> +0.0000000e+00 </wgt>
<wgt id='1070'> +0.0000000e+00 </wgt>
<wgt id='1071'> +0.0000000e+00 </wgt>
<wgt id='1072'> +0.0000000e+00 </wgt>
<wgt id='1073'> +0.0000000e+00 </wgt>
<wgt id='1074'> +0.0000000e+00 </wgt>
<wgt id='1075'> +0.0000000e+00 </wgt>
<wgt id='1076'> +0.0000000e+00 </wgt>
<wgt id='1077'> +0.0000000e+00 </wgt>
<wgt id='1078'> +0.0000000e+00 </wgt>
<wgt id='1079'> +0.0000000e+00 </wgt>
<wgt id='1080'> +0.0000000e+00 </wgt>
<wgt id='1081'> +0.0000000e+00 </wgt>
<wgt id='1082'> +0.0000000e+00 </wgt>
<wgt id='1083'> +0.0000000e+00 </wgt>
<wgt id='1084'> +0.0000000e+00 </wgt>
<wgt id='1085'> +0.0000000e+00 </wgt>
<wgt id='1086'> +0.0000000e+00 </wgt>
<wgt id='1087'> +0.0000000e+00 </wgt>
<wgt id='1088'> +0.0000000e+00 </wgt>
<wgt id='1089'> +0.0000000e+00 </wgt>
<wgt id='1090'> +0.0000000e+00 </wgt>
<wgt id='1091'> +0.0000000e+00 </wgt>
<wgt id='1092'> +0.0000000e+00 </wgt>
<wgt id='1093'> +0.0000000e+00 </wgt>
<wgt id='1094'> +0.0000000e+00 </wgt>
<wgt id='1095'> +0.0000000e+00 </wgt>
<wgt id='1096'> +0.0000000e+00 </wgt>
<wgt id='1097'> +0.0000000e+00 </wgt>
<wgt id='1098'> +0.0000000e+00 </wgt>
<wgt id='1099'> +0.0000000e+00 </wgt>
<wgt id='1100'> +0.0000000e+00 </wgt>
<wgt id='1101'> +0.0000000e+00 </wgt>
<wgt id='1102'> +0.0000000e+00 </wgt>
<wgt id='1103'> +0.0000000e+00 </wgt>
<wgt id='1104'> +0.0000000e+00 </wgt>
<wgt id='1105'> +0.0000000e+00 </wgt>
<wgt id='1106'> +0.0000000e+00 </wgt>
<wgt id='1107'> +0.0000000e+00 </wgt>
<wgt id='1108'> +0.0000000e+00 </wgt>
<wgt id='1109'> +0.0000000e+00 </wgt>
<wgt id='1110'> +0.0000000e+00 </wgt>
<wgt id='1111'> +0.0000000e+00 </wgt>
<wgt id='1112'> +0.0000000e+00 </wgt>
<wgt id='1113'> +0.0000000e+00 </wgt>
<wgt id='1114'> +0.0000000e+00 </wgt>
<wgt id='1115'> +0.0000000e+00 </wgt>
<wgt id='1116'> +0.0000000e+00 </wgt>
<wgt id='1117'> +0.0000000e+00 </wgt>
<wgt id='1118'> +0.0000000e+00 </wgt>
<wgt id='1119'> +0.0000000e+00 </wgt>
<wgt id='1120'> +0.0000000e+00 </wgt>
<wgt id='1121'> +0.0000000e+00 </wgt>
<wgt id='1122'> +0.0000000e+00 </wgt>
<wgt id='1123'> +0.0000000e+00 </wgt>
<wgt id='1124'> +0.0000000e+00 </wgt>
<wgt id='1125'> +0.0000000e+00 </wgt>
<wgt id='1126'> +0.0000000e+00 </wgt>
<wgt id='1127'> +0.0000000e+00 </wgt>
<wgt id='1128'> +0.0000000e+00 </wgt>
<wgt id='1129'> +0.0000000e+00 </wgt>
<wgt id='1130'> +0.0000000e+00 </wgt>
<wgt id='1131'> +0.0000000e+00 </wgt>
<wgt id='1132'> +0.0000000e+00 </wgt>
<wgt id='1133'> +0.0000000e+00 </wgt>
<wgt id='1134'> +0.0000000e+00 </wgt>
<wgt id='1135'> +0.0000000e+00 </wgt>
<wgt id='1136'> +0.0000000e+00 </wgt>
<wgt id='1137'> +0.0000000e+00 </wgt>
<wgt id='1138'> +0.0000000e+00 </wgt>
<wgt id='1139'> +0.0000000e+00 </wgt>
<wgt id='1140'> +0.0000000e+00 </wgt>
<wgt id='1141'> +0.0000000e+00 </wgt>
<wgt id='1142'> +0.0000000e+00 </wgt>
<wgt id='1143'> +0.0000000e+00 </wgt>
<wgt id='1144'> +0.0000000e+00 </wgt>
<wgt id='1145'> +0.0000000e+00 </wgt>
<wgt id='1146'> +0.0000000e+00 </wgt>
<wgt id='1147'> +0.0000000e+00 </wgt>
<wgt id='1148'> +0.0000000e+00 </wgt>
<wgt id='1149'> +0.0000000e+00 </wgt>
<wgt id='1150'> +0.0000000e+00 </wgt>
<wgt id='1151'> +0.0000000e+00 </wgt>
<wgt id='1152'> +0.0000000e+00 </wgt>
<wgt id='1153'> +0.0000000e+00 </wgt>
<wgt id='1154'> +0.0000000e+00 </wgt>
<wgt id='1155'> +0.0000000e+00 </wgt>
<wgt id='1156'> +0.0000000e+00 </wgt>
<wgt id='1157'> +0.0000000e+00 </wgt>
<wgt id='1158'> +0.0000000e+00 </wgt>
<wgt id='1159'> +0.0000000e+00 </wgt>
<wgt id='1160'> +0.0000000e+00 </wgt>
<wgt id='1161'> +0.0000000e+00 </wgt>
<wgt id='1162'> +0.0000000e+00 </wgt>
<wgt id='1163'> +0.0000000e+00 </wgt>
<wgt id='1164'> +0.0000000e+00 </wgt>
<wgt id='1165'> +0.0000000e+00 </wgt>
<wgt id='1166'> +0.0000000e+00 </wgt>
<wgt id='1167'> +0.0000000e+00 </wgt>
<wgt id='1168'> +0.0000000e+00 </wgt>
<wgt id='1169'> +0.0000000e+00 </wgt>
<wgt id='1170'> +0.0000000e+00 </wgt>
<wgt id='1171'> +0.0000000e+00 </wgt>
<wgt id='1172'> +0.0000000e+00 </wgt>
<wgt id='1173'> +0.0000000e+00 </wgt>
<wgt id='1174'> +0.0000000e+00 </wgt>
<wgt id='1175'> +0.0000000e+00 </wgt>
<wgt id='1176'> +0.0000000e+00 </wgt>
<wgt id='1177'> +0.0000000e+00 </wgt>
<wgt id='1178'> +0.0000000e+00 </wgt>
<wgt id='1179'> +0.0000000e+00 </wgt>
<wgt id='1180'> +0.0000000e+00 </wgt>
<wgt id='1181'> +0.0000000e+00 </wgt>
<wgt id='1182'> +0.0000000e+00 </wgt>
<wgt id='1183'> +0.0000000e+00 </wgt>
<wgt id='1184'> +0.0000000e+00 </wgt>
<wgt id='1185'> +0.0000000e+00 </wgt>
<wgt id='1186'> +0.0000000e+00 </wgt>
<wgt id='1187'> +0.0000000e+00 </wgt>
<wgt id='1188'> +0.0000000e+00 </wgt>
<wgt id='1189'> +0.0000000e+00 </wgt>
<wgt id='1190'> +0.0000000e+00 </wgt>
<wgt id='1191'> +0.0000000e+00 </wgt>
<wgt id='1192'> +0.0000000e+00 </wgt>
<wgt id='1193'> +0.0000000e+00 </wgt>
<wgt id='1194'> +0.0000000e+00 </wgt>
<wgt id='1195'> +0.0000000e+00 </wgt>
<wgt id='1196'> +0.0000000e+00 </wgt>
<wgt id='1197'> +0.0000000e+00 </wgt>
<wgt id='1198'> +0.0000000e+00 </wgt>
<wgt id='1199'> +0.0000000e+00 </wgt>
<wgt id='1200'> +0.0000000e+00 </wgt>
<wgt id='1201'> +0.0000000e+00 </wgt>
<wgt id='1202'> +0.0000000e+00 </wgt>
<wgt id='1203'> +0.0000000e+00 </wgt>
<wgt id='1204'> +0.0000000e+00 </wgt>
<wgt id='1205'> +0.0000000e+00 </wgt>
<wgt id='1206'> +0.0000000e+00 </wgt>
<wgt id='1207'> +0.0000000e+00 </wgt>
<wgt id='1208'> +0.0000000e+00 </wgt>
<wgt id='1209'> +0.0000000e+00 </wgt>
<wgt id='1210'> +0.0000000e+00 </wgt>
<wgt id='1211'> +0.0000000e+00 </wgt>
<wgt id='1212'> +0.0000000e+00 </wgt>
<wgt id='1213'> +0.0000000e+00 </wgt>
<wgt id='1214'> +0.0000000e+00 </wgt>
<wgt id='1215'> +0.0000000e+00 </wgt>
<wgt id='1216'> +0.0000000e+00 </wgt>
<wgt id='1217'> +0.0000000e+00 </wgt>
<wgt id='1218'> +0.0000000e+00 </wgt>
<wgt id='1219'> +0.0000000e+00 </wgt>
<wgt id='1220'> +0.0000000e+00 </wgt>
<wgt id='1221'> +0.0000000e+00 </wgt>
<wgt id='1222'> +0.0000000e+00 </wgt>
<wgt id='1223'> +0.0000000e+00 </wgt>
<wgt id='1224'> +0.0000000e+00 </wgt>
<wgt id='1225'> +0.0000000e+00 </wgt>
<wgt id='1226'> +0.0000000e+00 </wgt>
<wgt id='1227'> +0.0000000e+00 </wgt>
<wgt id='1228'> +0.0000000e+00 </wgt>
<wgt id='1229'> +0.0000000e+00 </wgt>
<wgt id='1230'> +0.0000000e+00 </wgt>
<wgt id='1231'> +0.0000000e+00 </wgt>
<wgt id='1232'> +0.0000000e+00 </wgt>
<wgt id='1233'> +0.0000000e+00 </wgt>
<wgt id='1234'> +0.0000000e+00 </wgt>
<wgt id='1235'> +0.0000000e+00 </wgt>
<wgt id='1236'> +0.0000000e+00 </wgt>
<wgt id='1237'> +0.0000000e+00 </wgt>
<wgt id='1238'> +0.0000000e+00 </wgt>
<wgt id='1239'> +0.0000000e+00 </wgt>
<wgt id='1240'> +0.0000000e+00 </wgt>
<wgt id='1241'> +0.0000000e+00 </wgt>
<wgt id='1242'> +0.0000000e+00 </wgt>
<wgt id='1243'> +0.0000000e+00 </wgt>
<wgt id='1244'> +0.0000000e+00 </wgt>
<wgt id='1245'> +0.0000000e+00 </wgt>
<wgt id='1246'> +0.0000000e+00 </wgt>
<wgt id='1247'> +0.0000000e+00 </wgt>
<wgt id='1248'> +0.0000000e+00 </wgt>
<wgt id='1249'> +0.0000000e+00 </wgt>
<wgt id='1250'> +0.0000000e+00 </wgt>
<wgt id='1251'> +0.0000000e+00 </wgt>
<wgt id='1252'> +0.0000000e+00 </wgt>
<wgt id='1253'> +0.0000000e+00 </wgt>
<wgt id='1254'> +0.0000000e+00 </wgt>
<wgt id='1255'> +0.0000000e+00 </wgt>
<wgt id='1256'> +0.0000000e+00 </wgt>
<wgt id='1257'> +0.0000000e+00 </wgt>
<wgt id='1258'> +0.0000000e+00 </wgt>
<wgt id='1259'> +0.0000000e+00 </wgt>
<wgt id='1260'> +0.0000000e+00 </wgt>
<wgt id='1261'> +0.0000000e+00 </wgt>
<wgt id='1262'> +0.0000000e+00 </wgt>
<wgt id='1263'> +0.0000000e+00 </wgt>
<wgt id='1264'> +0.0000000e+00 </wgt>
<wgt id='1265'> +0.0000000e+00 </wgt>
<wgt id='1266'> +0.0000000e+00 </wgt>
<wgt id='1267'> +0.0000000e+00 </wgt>
<wgt id='1268'> +0.0000000e+00 </wgt>
<wgt id='1269'> +0.0000000e+00 </wgt>
<wgt id='1270'> +0.0000000e+00 </wgt>
<wgt id='1271'> +0.0000000e+00 </wgt>
<wgt id='1272'> +0.0000000e+00 </wgt>
<wgt id='1273'> +0.0000000e+00 </wgt>
<wgt id='1274'> +0.0000000e+00 </wgt>
<wgt id='1275'> +0.0000000e+00 </wgt>
<wgt id='1276'> +0.0000000e+00 </wgt>
<wgt id='1277'> +0.0000000e+00 </wgt>
<wgt id='1278'> +0.0000000e+00 </wgt>
<wgt id='1279'> +0.0000000e+00 </wgt>
<wgt id='1280'> +0.0000000e+00 </wgt>
<wgt id='1281'> +0.0000000e+00 </wgt>
<wgt id='1282'> +0.0000000e+00 </wgt>
<wgt id='1283'> +0.0000000e+00 </wgt>
<wgt id='1284'> +0.0000000e+00 </wgt>
<wgt id='1285'> +0.0000000e+00 </wgt>
<wgt id='1286'> +0.0000000e+00 </wgt>
<wgt id='1287'> +0.0000000e+00 </wgt>
<wgt id='1288'> +0.0000000e+00 </wgt>
<wgt id='1289'> +0.0000000e+00 </wgt>
<wgt id='1290'> +0.0000000e+00 </wgt>
<wgt id='1291'> +0.0000000e+00 </wgt>
<wgt id='1292'> +0.0000000e+00 </wgt>
<wgt id='1293'> +0.0000000e+00 </wgt>
<wgt id='1294'> +0.0000000e+00 </wgt>
<wgt id='1295'> +0.0000000e+00 </wgt>
<wgt id='1296'> +0.0000000e+00 </wgt>
<wgt id='1297'> +0.0000000e+00 </wgt>
<wgt id='1298'> +0.0000000e+00 </wgt>
<wgt id='1299'> +0.0000000e+00 </wgt>
<wgt id='1300'> +0.0000000e+00 </wgt>
<wgt id='1301'> +0.0000000e+00 </wgt>
<wgt id='1302'> +0.0000000e+00 </wgt>
<wgt id='1303'> +0.0000000e+00 </wgt>
<wgt id='1304'> +0.0000000e+00 </wgt>
<wgt id='1305'> +0.0000000e+00 </wgt>
<wgt id='1306'> +0.0000000e+00 </wgt>
<wgt id='1307'> +0.0000000e+00 </wgt>
<wgt id='1308'> +0.0000000e+00 </wgt>
<wgt id='1309'> +0.0000000e+00 </wgt>
<wgt id='1310'> +0.0000000e+00 </wgt>
<wgt id='1311'> +0.0000000e+00 </wgt>
<wgt id='1312'> +0.0000000e+00 </wgt>
<wgt id='1313'> +0.0000000e+00 </wgt>
<wgt id='1314'> +0.0000000e+00 </wgt>
<wgt id='1315'> +0.0000000e+00 </wgt>
<wgt id='1316'> +0.0000000e+00 </wgt>
<wgt id='1317'> +0.0000000e+00 </wgt>
<wgt id='1318'> +0.0000000e+00 </wgt>
<wgt id='1319'> +0.0000000e+00 </wgt>
<wgt id='1320'> +0.0000000e+00 </wgt>
<wgt id='1321'> +0.0000000e+00 </wgt>
<wgt id='1322'> +0.0000000e+00 </wgt>
<wgt id='1323'> +0.0000000e+00 </wgt>
<wgt id='1324'> +0.0000000e+00 </wgt>
<wgt id='1325'> +0.0000000e+00 </wgt>
<wgt id='1326'> +0.0000000e+00 </wgt>
<wgt id='1327'> +0.0000000e+00 </wgt>
<wgt id='1328'> +0.0000000e+00 </wgt>
<wgt id='1329'> +0.0000000e+00 </wgt>
<wgt id='1330'> +0.0000000e+00 </wgt>
<wgt id='1331'> +0.0000000e+00 </wgt>
<wgt id='1332'> +0.0000000e+00 </wgt>
<wgt id='1333'> +0.0000000e+00 </wgt>
<wgt id='1334'> +0.0000000e+00 </wgt>
<wgt id='1335'> +0.0000000e+00 </wgt>
<wgt id='1336'> +0.0000000e+00 </wgt>
<wgt id='1337'> +0.0000000e+00 </wgt>
<wgt id='1338'> +0.0000000e+00 </wgt>
<wgt id='1339'> +0.0000000e+00 </wgt>
<wgt id='1340'> +0.0000000e+00 </wgt>
<wgt id='1341'> +0.0000000e+00 </wgt>
<wgt id='1342'> +0.0000000e+00 </wgt>
<wgt id='1343'> +0.0000000e+00 </wgt>
<wgt id='1344'> +0.0000000e+00 </wgt>
<wgt id='1345'> +0.0000000e+00 </wgt>
<wgt id='1346'> +0.0000000e+00 </wgt>
<wgt id='1347'> +0.0000000e+00 </wgt>
<wgt id='1348'> +0.0000000e+00 </wgt>
<wgt id='1349'> +0.0000000e+00 </wgt>
<wgt id='1350'> +0.0000000e+00 </wgt>
<wgt id='1351'> +0.0000000e+00 </wgt>
<wgt id='1352'> +0.0000000e+00 </wgt>
<wgt id='1353'> +0.0000000e+00 </wgt>
<wgt id='1354'> +0.0000000e+00 </wgt>
<wgt id='1355'> +0.0000000e+00 </wgt>
<wgt id='1356'> +0.0000000e+00 </wgt>
<wgt id='1357'> +0.0000000e+00 </wgt>
<wgt id='1358'> +0.0000000e+00 </wgt>
<wgt id='1359'> +0.0000000e+00 </wgt>
<wgt id='1360'> +0.0000000e+00 </wgt>
<wgt id='1361'> +0.0000000e+00 </wgt>
<wgt id='1362'> +0.0000000e+00 </wgt>
<wgt id='1363'> +0.0000000e+00 </wgt>
<wgt id='1364'> +0.0000000e+00 </wgt>
<wgt id='1365'> +0.0000000e+00 </wgt>
<wgt id='1366'> +0.0000000e+00 </wgt>
<wgt id='1367'> +0.0000000e+00 </wgt>
<wgt id='1368'> +0.0000000e+00 </wgt>
<wgt id='1369'> +0.0000000e+00 </wgt>
<wgt id='1370'> +0.0000000e+00 </wgt>
<wgt id='1371'> +0.0000000e+00 </wgt>
<wgt id='1372'> +0.0000000e+00 </wgt>
<wgt id='1373'> +0.0000000e+00 </wgt>
<wgt id='1374'> +0.0000000e+00 </wgt>
<wgt id='1375'> +0.0000000e+00 </wgt>
<wgt id='1376'> +0.0000000e+00 </wgt>
<wgt id='1377'> +0.0000000e+00 </wgt>
<wgt id='1378'> +0.0000000e+00 </wgt>
<wgt id='1379'> +0.0000000e+00 </wgt>
<wgt id='1380'> +0.0000000e+00 </wgt>
<wgt id='1381'> +0.0000000e+00 </wgt>
<wgt id='1382'> +0.0000000e+00 </wgt>
<wgt id='1383'> +0.0000000e+00 </wgt>
<wgt id='1384'> +0.0000000e+00 </wgt>
<wgt id='1385'> +0.0000000e+00 </wgt>
<wgt id='1386'> +0.0000000e+00 </wgt>
<wgt id='1387'> +0.0000000e+00 </wgt>
<wgt id='1388'> +0.0000000e+00 </wgt>
<wgt id='1389'> +0.0000000e+00 </wgt>
<wgt id='1390'> +0.0000000e+00 </wgt>
<wgt id='1391'> +0.0000000e+00 </wgt>
<wgt id='1392'> +0.0000000e+00 </wgt>
<wgt id='1393'> +0.0000000e+00 </wgt>
<wgt id='1394'> +0.0000000e+00 </wgt>
<wgt id='1395'> +0.0000000e+00 </wgt>
<wgt id='1396'> +0.0000000e+00 </wgt>
<wgt id='1397'> +0.0000000e+00 </wgt>
<wgt id='1398'> +0.0000000e+00 </wgt>
<wgt id='1399'> +0.0000000e+00 </wgt>
<wgt id='1400'> +0.0000000e+00 </wgt>
<wgt id='1401'> +0.0000000e+00 </wgt>
<wgt id='1402'> +0.0000000e+00 </wgt>
<wgt id='1403'> +0.0000000e+00 </wgt>
<wgt id='1404'> +0.0000000e+00 </wgt>
<wgt id='1405'> +0.0000000e+00 </wgt>
<wgt id='1406'> +0.0000000e+00 </wgt>
<wgt id='1407'> +0.0000000e+00 </wgt>
<wgt id='1408'> +0.0000000e+00 </wgt>
<wgt id='1409'> +0.0000000e+00 </wgt>
<wgt id='1410'> +0.0000000e+00 </wgt>
<wgt id='1411'> +0.0000000e+00 </wgt>
<wgt id='1412'> +0.0000000e+00 </wgt>
<wgt id='1413'> +0.0000000e+00 </wgt>
<wgt id='1414'> +0.0000000e+00 </wgt>
<wgt id='1415'> +0.0000000e+00 </wgt>
<wgt id='1416'> +0.0000000e+00 </wgt>
<wgt id='1417'> +0.0000000e+00 </wgt>
<wgt id='1418'> +0.0000000e+00 </wgt>
<wgt id='1419'> +0.0000000e+00 </wgt>
<wgt id='1420'> +0.0000000e+00 </wgt>
<wgt id='1421'> +0.0000000e+00 </wgt>
<wgt id='1422'> +0.0000000e+00 </wgt>
<wgt id='1423'> +0.0000000e+00 </wgt>
<wgt id='1424'> +0.0000000e+00 </wgt>
<wgt id='1425'> +0.0000000e+00 </wgt>
<wgt id='1426'> +0.0000000e+00 </wgt>
<wgt id='1427'> +0.0000000e+00 </wgt>
<wgt id='1428'> +0.0000000e+00 </wgt>
<wgt id='1429'> +0.0000000e+00 </wgt>
<wgt id='1430'> +0.0000000e+00 </wgt>
<wgt id='1431'> +0.0000000e+00 </wgt>
<wgt id='1432'> +0.0000000e+00 </wgt>
<wgt id='1433'> +0.0000000e+00 </wgt>
<wgt id='1434'> +0.0000000e+00 </wgt>
<wgt id='1435'> +0.0000000e+00 </wgt>
<wgt id='1436'> +0.0000000e+00 </wgt>
<wgt id='1437'> +0.0000000e+00 </wgt>
<wgt id='1438'> +0.0000000e+00 </wgt>
<wgt id='1439'> +0.0000000e+00 </wgt>
<wgt id='1440'> +0.0000000e+00 </wgt>
<wgt id='1441'> +0.0000000e+00 </wgt>
<wgt id='1442'> +0.0000000e+00 </wgt>
<wgt id='1443'> +0.0000000e+00 </wgt>
<wgt id='1444'> +0.0000000e+00 </wgt>
<wgt id='1445'> +0.0000000e+00 </wgt>
<wgt id='1446'> +0.0000000e+00 </wgt>
<wgt id='1447'> +0.0000000e+00 </wgt>
<wgt id='1448'> +0.0000000e+00 </wgt>
<wgt id='1449'> +0.0000000e+00 </wgt>
<wgt id='1450'> +0.0000000e+00 </wgt>
<wgt id='1451'> +0.0000000e+00 </wgt>
<wgt id='1452'> +0.0000000e+00 </wgt>
<wgt id='1453'> +0.0000000e+00 </wgt>
<wgt id='1454'> +0.0000000e+00 </wgt>
<wgt id='1455'> +0.0000000e+00 </wgt>
<wgt id='1456'> +0.0000000e+00 </wgt>
<wgt id='1457'> +0.0000000e+00 </wgt>
<wgt id='1458'> +0.0000000e+00 </wgt>
<wgt id='1459'> +0.0000000e+00 </wgt>
<wgt id='1460'> +0.0000000e+00 </wgt>
<wgt id='1461'> +0.0000000e+00 </wgt>
<wgt id='1462'> +0.0000000e+00 </wgt>
<wgt id='1463'> +0.0000000e+00 </wgt>
<wgt id='1464'> +0.0000000e+00 </wgt>
<wgt id='1465'> +0.0000000e+00 </wgt>
<wgt id='1466'> +0.0000000e+00 </wgt>
<wgt id='1467'> +0.0000000e+00 </wgt>
<wgt id='1468'> +0.0000000e+00 </wgt>
<wgt id='1469'> +0.0000000e+00 </wgt>
<wgt id='1470'> +0.0000000e+00 </wgt>
<wgt id='1471'> +0.0000000e+00 </wgt>
<wgt id='1472'> +0.0000000e+00 </wgt>
<wgt id='1473'> +0.0000000e+00 </wgt>
<wgt id='1474'> +0.0000000e+00 </wgt>
<wgt id='1475'> +0.0000000e+00 </wgt>
<wgt id='1476'> +0.0000000e+00 </wgt>
<wgt id='1477'> +0.0000000e+00 </wgt>
<wgt id='1478'> +0.0000000e+00 </wgt>
<wgt id='1479'> +0.0000000e+00 </wgt>
<wgt id='1480'> +0.0000000e+00 </wgt>
<wgt id='1481'> +0.0000000e+00 </wgt>
<wgt id='1482'> +0.0000000e+00 </wgt>
<wgt id='1483'> +0.0000000e+00 </wgt>
<wgt id='1484'> +0.0000000e+00 </wgt>
<wgt id='1485'> +0.0000000e+00 </wgt>
<wgt id='1486'> +0.0000000e+00 </wgt>
<wgt id='1487'> +0.0000000e+00 </wgt>
<wgt id='1488'> +0.0000000e+00 </wgt>
<wgt id='1489'> +0.0000000e+00 </wgt>
<wgt id='1490'> +0.0000000e+00 </wgt>
<wgt id='1491'> +0.0000000e+00 </wgt>
<wgt id='1492'> +0.0000000e+00 </wgt>
<wgt id='1493'> +0.0000000e+00 </wgt>
<wgt id='1494'> +0.0000000e+00 </wgt>
<wgt id='1495'> +0.0000000e+00 </wgt>
<wgt id='1496'> +0.0000000e+00 </wgt>
<wgt id='1497'> +0.0000000e+00 </wgt>
<wgt id='1498'> +0.0000000e+00 </wgt>
<wgt id='1499'> +0.0000000e+00 </wgt>
<wgt id='1500'> +0.0000000e+00 </wgt>
<wgt id='1501'> +0.0000000e+00 </wgt>
<wgt id='1502'> +0.0000000e+00 </wgt>
<wgt id='1503'> +0.0000000e+00 </wgt>
<wgt id='1504'> +0.0000000e+00 </wgt>
<wgt id='1505'> +0.0000000e+00 </wgt>
<wgt id='1506'> +0.0000000e+00 </wgt>
<wgt id='1507'> +0.0000000e+00 </wgt>
<wgt id='1508'> +0.0000000e+00 </wgt>
<wgt id='1509'> +0.0000000e+00 </wgt>
<wgt id='1510'> +0.0000000e+00 </wgt>
<wgt id='1511'> +0.0000000e+00 </wgt>
<wgt id='1512'> +0.0000000e+00 </wgt>
<wgt id='1513'> +0.0000000e+00 </wgt>
<wgt id='1514'> +0.0000000e+00 </wgt>
<wgt id='1515'> +0.0000000e+00 </wgt>
<wgt id='1516'> +0.0000000e+00 </wgt>
<wgt id='1517'> +0.0000000e+00 </wgt>
<wgt id='1518'> +0.0000000e+00 </wgt>
<wgt id='1519'> +0.0000000e+00 </wgt>
<wgt id='1520'> +0.0000000e+00 </wgt>
<wgt id='1521'> +0.0000000e+00 </wgt>
<wgt id='1522'> +0.0000000e+00 </wgt>
<wgt id='1523'> +0.0000000e+00 </wgt>
<wgt id='1524'> +0.0000000e+00 </wgt>
<wgt id='1525'> +0.0000000e+00 </wgt>
<wgt id='1526'> +0.0000000e+00 </wgt>
<wgt id='1527'> +0.0000000e+00 </wgt>
<wgt id='1528'> +0.0000000e+00 </wgt>
<wgt id='1529'> +0.0000000e+00 </wgt>
<wgt id='1530'> +0.0000000e+00 </wgt>
<wgt id='1531'> +0.0000000e+00 </wgt>
<wgt id='1532'> +0.0000000e+00 </wgt>
<wgt id='1533'> +0.0000000e+00 </wgt>
<wgt id='1534'> +0.0000000e+00 </wgt>
<wgt id='1535'> +0.0000000e+00 </wgt>
<wgt id='1536'> +0.0000000e+00 </wgt>
<wgt id='1537'> +0.0000000e+00 </wgt>
<wgt id='1538'> +0.0000000e+00 </wgt>
<wgt id='1539'> +0.0000000e+00 </wgt>
<wgt id='1540'> +0.0000000e+00 </wgt>
<wgt id='1541'> +0.0000000e+00 </wgt>
<wgt id='1542'> +0.0000000e+00 </wgt>
<wgt id='1543'> +0.0000000e+00 </wgt>
<wgt id='1544'> +0.0000000e+00 </wgt>
<wgt id='1545'> +0.0000000e+00 </wgt>
<wgt id='1546'> +0.0000000e+00 </wgt>
<wgt id='1547'> +0.0000000e+00 </wgt>
<wgt id='1548'> +0.0000000e+00 </wgt>
<wgt id='1549'> +0.0000000e+00 </wgt>
<wgt id='1550'> +0.0000000e+00 </wgt>
<wgt id='1551'> +0.0000000e+00 </wgt>
<wgt id='1552'> +0.0000000e+00 </wgt>
<wgt id='1553'> +0.0000000e+00 </wgt>
<wgt id='1554'> +0.0000000e+00 </wgt>
<wgt id='1555'> +0.0000000e+00 </wgt>
<wgt id='1556'> +0.0000000e+00 </wgt>
<wgt id='1557'> +0.0000000e+00 </wgt>
<wgt id='1558'> +0.0000000e+00 </wgt>
<wgt id='1559'> +0.0000000e+00 </wgt>
<wgt id='1560'> +0.0000000e+00 </wgt>
<wgt id='1561'> +0.0000000e+00 </wgt>
<wgt id='1562'> +0.0000000e+00 </wgt>
<wgt id='1563'> +0.0000000e+00 </wgt>
<wgt id='1564'> +0.0000000e+00 </wgt>
<wgt id='1565'> +0.0000000e+00 </wgt>
<wgt id='1566'> +0.0000000e+00 </wgt>
<wgt id='1567'> +0.0000000e+00 </wgt>
<wgt id='1568'> +0.0000000e+00 </wgt>
<wgt id='1569'> +0.0000000e+00 </wgt>
<wgt id='1570'> +0.0000000e+00 </wgt>
<wgt id='1571'> +0.0000000e+00 </wgt>
<wgt id='1572'> +0.0000000e+00 </wgt>
<wgt id='1573'> +0.0000000e+00 </wgt>
<wgt id='1574'> +0.0000000e+00 </wgt>
<wgt id='1575'> +0.0000000e+00 </wgt>
<wgt id='1576'> +0.0000000e+00 </wgt>
<wgt id='1577'> +0.0000000e+00 </wgt>
<wgt id='1578'> +0.0000000e+00 </wgt>
<wgt id='1579'> +0.0000000e+00 </wgt>
<wgt id='1580'> +0.0000000e+00 </wgt>
<wgt id='1581'> +0.0000000e+00 </wgt>
<wgt id='1582'> +0.0000000e+00 </wgt>
<wgt id='1583'> +0.0000000e+00 </wgt>
<wgt id='1584'> +0.0000000e+00 </wgt>
<wgt id='1585'> +0.0000000e+00 </wgt>
<wgt id='1586'> +0.0000000e+00 </wgt>
<wgt id='1587'> +0.0000000e+00 </wgt>
<wgt id='1588'> +0.0000000e+00 </wgt>
<wgt id='1589'> +0.0000000e+00 </wgt>
<wgt id='1590'> +0.0000000e+00 </wgt>
<wgt id='1591'> +0.0000000e+00 </wgt>
<wgt id='1592'> +0.0000000e+00 </wgt>
<wgt id='1593'> +0.0000000e+00 </wgt>
<wgt id='1594'> +0.0000000e+00 </wgt>
<wgt id='1595'> +0.0000000e+00 </wgt>
<wgt id='1596'> +0.0000000e+00 </wgt>
<wgt id='1597'> +0.0000000e+00 </wgt>
<wgt id='1598'> +0.0000000e+00 </wgt>
<wgt id='1599'> +0.0000000e+00 </wgt>
<wgt id='1600'> +0.0000000e+00 </wgt>
<wgt id='1601'> +0.0000000e+00 </wgt>
<wgt id='1602'> +0.0000000e+00 </wgt>
<wgt id='1603'> +0.0000000e+00 </wgt>
<wgt id='1604'> +0.0000000e+00 </wgt>
<wgt id='1605'> +0.0000000e+00 </wgt>
<wgt id='1606'> +0.0000000e+00 </wgt>
<wgt id='1607'> +0.0000000e+00 </wgt>
<wgt id='1608'> +0.0000000e+00 </wgt>
<wgt id='1609'> +0.0000000e+00 </wgt>
<wgt id='1610'> +0.0000000e+00 </wgt>
<wgt id='1611'> +0.0000000e+00 </wgt>
<wgt id='1612'> +1.5797725e-04 </wgt>
<wgt id='1613'> +1.5822706e-04 </wgt>
<wgt id='1614'> +1.5692212e-04 </wgt>
<wgt id='1615'> +1.5767976e-04 </wgt>
<wgt id='1616'> +1.5817694e-04 </wgt>
<wgt id='1617'> +1.5820389e-04 </wgt>
<wgt id='1618'> +1.5727824e-04 </wgt>
<wgt id='1619'> +1.5932033e-04 </wgt>
<wgt id='1620'> +1.5777394e-04 </wgt>
<wgt id='1621'> +1.5921241e-04 </wgt>
<wgt id='1622'> +1.5855985e-04 </wgt>
<wgt id='1623'> +1.5613695e-04 </wgt>
<wgt id='1624'> +1.5613287e-04 </wgt>
<wgt id='1625'> +1.5430524e-04 </wgt>
<wgt id='1626'> +1.5644600e-04 </wgt>
<wgt id='1627'> +1.5708888e-04 </wgt>
<wgt id='1628'> +1.5822606e-04 </wgt>
<wgt id='1629'> +1.5757851e-04 </wgt>
<wgt id='1630'> +1.5690396e-04 </wgt>
<wgt id='1631'> +1.5818296e-04 </wgt>
<wgt id='1632'> +1.5623249e-04 </wgt>
<wgt id='1633'> +1.5881071e-04 </wgt>
<wgt id='1634'> +1.5606083e-04 </wgt>
<wgt id='1635'> +1.5818046e-04 </wgt>
<wgt id='1636'> +1.5602437e-04 </wgt>
<wgt id='1637'> +1.5612281e-04 </wgt>
<wgt id='1638'> +1.5919051e-04 </wgt>
<wgt id='1639'> +1.5756456e-04 </wgt>
<wgt id='1640'> +1.5689049e-04 </wgt>
<wgt id='1641'> +1.6120757e-04 </wgt>
<wgt id='1642'> +1.5821407e-04 </wgt>
<wgt id='1643'> +1.5769103e-04 </wgt>
<wgt id='1644'> +1.5792161e-04 </wgt>
<wgt id='1645'> +1.5791493e-04 </wgt>
<wgt id='1646'> +1.6033051e-04 </wgt>
<wgt id='1647'> +1.5826156e-04 </wgt>
<wgt id='1648'> +1.5634455e-04 </wgt>
<wgt id='1649'> +1.6220841e-04 </wgt>
<wgt id='1650'> +1.6040819e-04 </wgt>
<wgt id='1651'> +1.5629620e-04 </wgt>
<wgt id='1652'> +1.5454441e-04 </wgt>
<wgt id='1653'> +1.5556847e-04 </wgt>
<wgt id='1654'> +1.5900976e-04 </wgt>
<wgt id='1655'> +1.6303347e-04 </wgt>
<wgt id='1656'> +1.5994760e-04 </wgt>
<wgt id='1657'> +1.5751485e-04 </wgt>
<wgt id='1658'> +1.5461048e-04 </wgt>
<wgt id='1659'> +1.5488615e-04 </wgt>
<wgt id='1660'> +1.5836229e-04 </wgt>
<wgt id='1661'> +1.5918359e-04 </wgt>
<wgt id='1662'> +1.5420469e-04 </wgt>
<wgt id='1663'> +1.5720133e-04 </wgt>
<wgt id='1664'> +1.5851438e-04 </wgt>
<wgt id='1665'> +1.5784794e-04 </wgt>
<wgt id='1666'> +1.5768849e-04 </wgt>
<wgt id='1667'> +1.5589768e-04 </wgt>
<wgt id='1668'> +1.5898028e-04 </wgt>
<wgt id='1669'> +1.5930915e-04 </wgt>
<wgt id='1670'> +1.5768544e-04 </wgt>
<wgt id='1671'> +1.5738459e-04 </wgt>
<wgt id='1672'> +1.5633564e-04 </wgt>
<wgt id='1673'> +1.5866907e-04 </wgt>
<wgt id='1674'> +1.5735358e-04 </wgt>
<wgt id='1675'> +1.5836416e-04 </wgt>
<wgt id='1676'> +1.5956656e-04 </wgt>
<wgt id='1677'> +1.5668253e-04 </wgt>
<wgt id='1678'> +1.6020766e-04 </wgt>
<wgt id='1679'> +1.5725333e-04 </wgt>
<wgt id='1680'> +1.5798977e-04 </wgt>
<wgt id='1681'> +1.5839092e-04 </wgt>
<wgt id='1682'> +1.5537920e-04 </wgt>
<wgt id='1683'> +1.5781643e-04 </wgt>
<wgt id='1684'> +1.5827048e-04 </wgt>
<wgt id='1685'> +1.5558407e-04 </wgt>
<wgt id='1686'> +1.5630993e-04 </wgt>
<wgt id='1687'> +1.5608119e-04 </wgt>
<wgt id='1688'> +1.5981456e-04 </wgt>
<wgt id='1689'> +1.5440287e-04 </wgt>
<wgt id='1690'> +1.5926796e-04 </wgt>
<wgt id='1691'> +1.5882204e-04 </wgt>
<wgt id='1692'> +1.5951444e-04 </wgt>
<wgt id='1693'> +1.5850999e-04 </wgt>
<wgt id='1694'> +1.5924493e-04 </wgt>
<wgt id='1695'> +1.5854656e-04 </wgt>
<wgt id='1696'> +1.5664413e-04 </wgt>
<wgt id='1697'> +1.5937364e-04 </wgt>
<wgt id='1698'> +1.5918101e-04 </wgt>
<wgt id='1699'> +1.5600539e-04 </wgt>
<wgt id='1700'> +1.5797953e-04 </wgt>
<wgt id='1701'> +1.5770856e-04 </wgt>
<wgt id='1702'> +1.5871713e-04 </wgt>
<wgt id='1703'> +1.5698090e-04 </wgt>
<wgt id='1704'> +1.5726094e-04 </wgt>
<wgt id='1705'> +1.5939413e-04 </wgt>
<wgt id='1706'> +1.5736144e-04 </wgt>
<wgt id='1707'> +1.5927646e-04 </wgt>
<wgt id='1708'> +1.5674793e-04 </wgt>
<wgt id='1709'> +1.6034401e-04 </wgt>
<wgt id='1710'> +1.5730492e-04 </wgt>
<wgt id='1711'> +1.5784200e-04 </wgt>
<wgt id='1712'> +1.5789643e-04 </wgt>
<wgt id='1713'> +1.4834872e-04 </wgt>
<wgt id='1714'> +1.7006360e-04 </wgt>
<wgt id='1715'> +0.0000000e+00 </wgt>
<wgt id='1716'> +0.0000000e+00 </wgt>
<wgt id='1717'> +0.0000000e+00 </wgt>
<wgt id='1718'> +0.0000000e+00 </wgt>
<wgt id='1719'> +0.0000000e+00 </wgt>
<wgt id='1720'> +0.0000000e+00 </wgt>
<wgt id='1721'> +0.0000000e+00 </wgt>
<wgt id='1722'> +0.0000000e+00 </wgt>
<wgt id='1723'> +0.0000000e+00 </wgt>
<wgt id='1724'> +0.0000000e+00 </wgt>
<wgt id='1725'> +0.0000000e+00 </wgt>
<wgt id='1726'> +0.0000000e+00 </wgt>
<wgt id='1727'> +0.0000000e+00 </wgt>
<wgt id='1728'> +0.0000000e+00 </wgt>
<wgt id='1729'> +0.0000000e+00 </wgt>
<wgt id='1730'> +0.0000000e+00 </wgt>
<wgt id='1731'> +0.0000000e+00 </wgt>
<wgt id='1732'> +0.0000000e+00 </wgt>
<wgt id='1733'> +0.0000000e+00 </wgt>
<wgt id='1734'> +0.0000000e+00 </wgt>
<wgt id='1735'> +0.0000000e+00 </wgt>
<wgt id='1736'> +0.0000000e+00 </wgt>
<wgt id='1737'> +0.0000000e+00 </wgt>
<wgt id='1738'> +0.0000000e+00 </wgt>
<wgt id='1739'> +0.0000000e+00 </wgt>
<wgt id='1740'> +0.0000000e+00 </wgt>
<wgt id='1741'> +0.0000000e+00 </wgt>
<wgt id='1742'> +0.0000000e+00 </wgt>
<wgt id='1743'> +0.0000000e+00 </wgt>
<wgt id='1744'> +0.0000000e+00 </wgt>
<wgt id='1745'> +0.0000000e+00 </wgt>
<wgt id='1746'> +0.0000000e+00 </wgt>
<wgt id='1747'> +0.0000000e+00 </wgt>
<wgt id='1748'> +0.0000000e+00 </wgt>
<wgt id='1749'> +0.0000000e+00 </wgt>
<wgt id='1750'> +0.0000000e+00 </wgt>
<wgt id='1751'> +0.0000000e+00 </wgt>
<wgt id='1752'> +0.0000000e+00 </wgt>
<wgt id='1753'> +0.0000000e+00 </wgt>
<wgt id='1754'> +0.0000000e+00 </wgt>
<wgt id='1755'> +0.0000000e+00 </wgt>
<wgt id='1756'> +0.0000000e+00 </wgt>
<wgt id='1757'> +0.0000000e+00 </wgt>
<wgt id='1758'> +0.0000000e+00 </wgt>
<wgt id='1759'> +0.0000000e+00 </wgt>
<wgt id='1760'> +0.0000000e+00 </wgt>
<wgt id='1761'> +0.0000000e+00 </wgt>
<wgt id='1762'> +0.0000000e+00 </wgt>
<wgt id='1763'> +0.0000000e+00 </wgt>
<wgt id='1764'> +0.0000000e+00 </wgt>
<wgt id='1765'> +0.0000000e+00 </wgt>
<wgt id='1766'> +0.0000000e+00 </wgt>
<wgt id='1767'> +0.0000000e+00 </wgt>
<wgt id='1768'> +0.0000000e+00 </wgt>
<wgt id='1769'> +0.0000000e+00 </wgt>
<wgt id='1770'> +0.0000000e+00 </wgt>
<wgt id='1771'> +0.0000000e+00 </wgt>
<wgt id='1772'> +0.0000000e+00 </wgt>
<wgt id='1773'> +0.0000000e+00 </wgt>
<wgt id='1774'> +0.0000000e+00 </wgt>
<wgt id='1775'> +0.0000000e+00 </wgt>
<wgt id='1776'> +0.0000000e+00 </wgt>
<wgt id='1777'> +0.0000000e+00 </wgt>
<wgt id='1778'> +0.0000000e+00 </wgt>
<wgt id='1779'> +0.0000000e+00 </wgt>
<wgt id='1780'> +0.0000000e+00 </wgt>
<wgt id='1781'> +0.0000000e+00 </wgt>
<wgt id='1782'> +0.0000000e+00 </wgt>
<wgt id='1783'> +0.0000000e+00 </wgt>
<wgt id='1784'> +0.0000000e+00 </wgt>
<wgt id='1785'> +0.0000000e+00 </wgt>
<wgt id='1786'> +0.0000000e+00 </wgt>
<wgt id='1787'> +0.0000000e+00 </wgt>
<wgt id='1788'> +0.0000000e+00 </wgt>
<wgt id='1789'> +0.0000000e+00 </wgt>
<wgt id='1790'> +0.0000000e+00 </wgt>
<wgt id='1791'> +0.0000000e+00 </wgt>
<wgt id='1792'> +0.0000000e+00 </wgt>
<wgt id='1793'> +0.0000000e+00 </wgt>
<wgt id='1794'> +0.0000000e+00 </wgt>
<wgt id='1795'> +0.0000000e+00 </wgt>
<wgt id='1796'> +0.0000000e+00 </wgt>
<wgt id='1797'> +0.0000000e+00 </wgt>
<wgt id='1798'> +0.0000000e+00 </wgt>
<wgt id='1799'> +0.0000000e+00 </wgt>
<wgt id='1800'> +0.0000000e+00 </wgt>
<wgt id='1801'> +0.0000000e+00 </wgt>
<wgt id='1802'> +0.0000000e+00 </wgt>
<wgt id='1803'> +0.0000000e+00 </wgt>
<wgt id='1804'> +0.0000000e+00 </wgt>
<wgt id='1805'> +0.0000000e+00 </wgt>
<wgt id='1806'> +0.0000000e+00 </wgt>
<wgt id='1807'> +0.0000000e+00 </wgt>
<wgt id='1808'> +0.0000000e+00 </wgt>
<wgt id='1809'> +0.0000000e+00 </wgt>
<wgt id='1810'> +0.0000000e+00 </wgt>
<wgt id='1811'> +0.0000000e+00 </wgt>
<wgt id='1812'> +0.0000000e+00 </wgt>
<wgt id='1813'> +0.0000000e+00 </wgt>
<wgt id='1814'> +0.0000000e+00 </wgt>
<wgt id='1815'> +0.0000000e+00 </wgt>
<wgt id='1816'> +0.0000000e+00 </wgt>
<wgt id='1817'> +0.0000000e+00 </wgt>
<wgt id='1818'> +0.0000000e+00 </wgt>
<wgt id='1819'> +0.0000000e+00 </wgt>
<wgt id='1820'> +0.0000000e+00 </wgt>
<wgt id='1821'> +0.0000000e+00 </wgt>
<wgt id='1822'> +0.0000000e+00 </wgt>
<wgt id='1823'> +0.0000000e+00 </wgt>
<wgt id='1824'> +0.0000000e+00 </wgt>
<wgt id='1825'> +0.0000000e+00 </wgt>
<wgt id='1826'> +0.0000000e+00 </wgt>
<wgt id='1827'> +0.0000000e+00 </wgt>
<wgt id='1828'> +0.0000000e+00 </wgt>
<wgt id='1829'> +0.0000000e+00 </wgt>
<wgt id='1830'> +0.0000000e+00 </wgt>
<wgt id='1831'> +0.0000000e+00 </wgt>
<wgt id='1832'> +0.0000000e+00 </wgt>
<wgt id='1833'> +0.0000000e+00 </wgt>
<wgt id='1834'> +0.0000000e+00 </wgt>
<wgt id='1835'> +0.0000000e+00 </wgt>
<wgt id='1836'> +0.0000000e+00 </wgt>
<wgt id='1837'> +0.0000000e+00 </wgt>
<wgt id='1838'> +0.0000000e+00 </wgt>
<wgt id='1839'> +0.0000000e+00 </wgt>
<wgt id='1840'> +0.0000000e+00 </wgt>
<wgt id='1841'> +0.0000000e+00 </wgt>
<wgt id='1842'> +0.0000000e+00 </wgt>
<wgt id='1843'> +0.0000000e+00 </wgt>
<wgt id='1844'> +0.0000000e+00 </wgt>
<wgt id='1845'> +0.0000000e+00 </wgt>
<wgt id='1846'> +0.0000000e+00 </wgt>
<wgt id='1847'> +0.0000000e+00 </wgt>
<wgt id='1848'> +0.0000000e+00 </wgt>
<wgt id='1849'> +0.0000000e+00 </wgt>
<wgt id='1850'> +0.0000000e+00 </wgt>
<wgt id='1851'> +0.0000000e+00 </wgt>
<wgt id='1852'> +0.0000000e+00 </wgt>
<wgt id='1853'> +0.0000000e+00 </wgt>
<wgt id='1854'> +0.0000000e+00 </wgt>
<wgt id='1855'> +0.0000000e+00 </wgt>
<wgt id='1856'> +0.0000000e+00 </wgt>
<wgt id='1857'> +0.0000000e+00 </wgt>
<wgt id='1858'> +0.0000000e+00 </wgt>
<wgt id='1859'> +0.0000000e+00 </wgt>
<wgt id='1860'> +0.0000000e+00 </wgt>
<wgt id='1861'> +0.0000000e+00 </wgt>
<wgt id='1862'> +0.0000000e+00 </wgt>
<wgt id='1863'> +0.0000000e+00 </wgt>
<wgt id='1864'> +0.0000000e+00 </wgt>
<wgt id='1865'> +0.0000000e+00 </wgt>
<wgt id='1866'> +0.0000000e+00 </wgt>
<wgt id='1867'> +0.0000000e+00 </wgt>
<wgt id='1868'> +0.0000000e+00 </wgt>
<wgt id='1869'> +0.0000000e+00 </wgt>
<wgt id='1870'> +0.0000000e+00 </wgt>
<wgt id='1871'> +0.0000000e+00 </wgt>
<wgt id='1872'> +0.0000000e+00 </wgt>
<wgt id='1873'> +0.0000000e+00 </wgt>
<wgt id='1874'> +0.0000000e+00 </wgt>
<wgt id='1875'> +0.0000000e+00 </wgt>
<wgt id='1876'> +0.0000000e+00 </wgt>
<wgt id='1877'> +0.0000000e+00 </wgt>
<wgt id='1878'> +0.0000000e+00 </wgt>
<wgt id='1879'> +0.0000000e+00 </wgt>
<wgt id='1880'> +0.0000000e+00 </wgt>
<wgt id='1881'> +0.0000000e+00 </wgt>
<wgt id='1882'> +0.0000000e+00 </wgt>
<wgt id='1883'> +0.0000000e+00 </wgt>
<wgt id='1884'> +0.0000000e+00 </wgt>
<wgt id='1885'> +0.0000000e+00 </wgt>
<wgt id='1886'> +0.0000000e+00 </wgt>
<wgt id='1887'> +0.0000000e+00 </wgt>
<wgt id='1888'> +0.0000000e+00 </wgt>
<wgt id='1889'> +0.0000000e+00 </wgt>
<wgt id='1890'> +0.0000000e+00 </wgt>
<wgt id='1891'> +0.0000000e+00 </wgt>
<wgt id='1892'> +0.0000000e+00 </wgt>
<wgt id='1893'> +0.0000000e+00 </wgt>
<wgt id='1894'> +0.0000000e+00 </wgt>
<wgt id='1895'> +0.0000000e+00 </wgt>
<wgt id='1896'> +0.0000000e+00 </wgt>
<wgt id='1897'> +0.0000000e+00 </wgt>
<wgt id='1898'> +0.0000000e+00 </wgt>
<wgt id='1899'> +0.0000000e+00 </wgt>
<wgt id='1900'> +0.0000000e+00 </wgt>
<wgt id='1901'> +0.0000000e+00 </wgt>
<wgt id='1902'> +0.0000000e+00 </wgt>
<wgt id='1903'> +0.0000000e+00 </wgt>
<wgt id='1904'> +0.0000000e+00 </wgt>
<wgt id='1905'> +0.0000000e+00 </wgt>
<wgt id='1906'> +0.0000000e+00 </wgt>
<wgt id='1907'> +0.0000000e+00 </wgt>
<wgt id='1908'> +0.0000000e+00 </wgt>
<wgt id='1909'> +0.0000000e+00 </wgt>
<wgt id='1910'> +0.0000000e+00 </wgt>
<wgt id='1911'> +0.0000000e+00 </wgt>
<wgt id='1912'> +0.0000000e+00 </wgt>
<wgt id='1913'> +0.0000000e+00 </wgt>
<wgt id='1914'> +0.0000000e+00 </wgt>
<wgt id='1915'> +0.0000000e+00 </wgt>
<wgt id='1916'> +0.0000000e+00 </wgt>
<wgt id='1917'> +0.0000000e+00 </wgt>
<wgt id='1918'> +0.0000000e+00 </wgt>
<wgt id='1919'> +0.0000000e+00 </wgt>
<wgt id='1920'> +0.0000000e+00 </wgt>
<wgt id='1921'> +0.0000000e+00 </wgt>
<wgt id='1922'> +0.0000000e+00 </wgt>
<wgt id='1923'> +0.0000000e+00 </wgt>
<wgt id='1924'> +0.0000000e+00 </wgt>
<wgt id='1925'> +0.0000000e+00 </wgt>
<wgt id='1926'> +0.0000000e+00 </wgt>
<wgt id='1927'> +0.0000000e+00 </wgt>
<wgt id='1928'> +0.0000000e+00 </wgt>
<wgt id='1929'> +0.0000000e+00 </wgt>
<wgt id='1930'> +0.0000000e+00 </wgt>
<wgt id='1931'> +0.0000000e+00 </wgt>
<wgt id='1932'> +0.0000000e+00 </wgt>
<wgt id='1933'> +0.0000000e+00 </wgt>
<wgt id='1934'> +0.0000000e+00 </wgt>
<wgt id='1935'> +0.0000000e+00 </wgt>
<wgt id='1936'> +0.0000000e+00 </wgt>
<wgt id='1937'> +0.0000000e+00 </wgt>
<wgt id='1938'> +0.0000000e+00 </wgt>
<wgt id='1939'> +0.0000000e+00 </wgt>
<wgt id='1940'> +0.0000000e+00 </wgt>
<wgt id='1941'> +0.0000000e+00 </wgt>
<wgt id='1942'> +0.0000000e+00 </wgt>
<wgt id='1943'> +0.0000000e+00 </wgt>
<wgt id='1944'> +0.0000000e+00 </wgt>
<wgt id='1945'> +0.0000000e+00 </wgt>
<wgt id='1946'> +0.0000000e+00 </wgt>
<wgt id='1947'> +0.0000000e+00 </wgt>
<wgt id='1948'> +0.0000000e+00 </wgt>
<wgt id='1949'> +0.0000000e+00 </wgt>
<wgt id='1950'> +0.0000000e+00 </wgt>
<wgt id='1951'> +0.0000000e+00 </wgt>
<wgt id='1952'> +0.0000000e+00 </wgt>
<wgt id='1953'> +0.0000000e+00 </wgt>
<wgt id='1954'> +0.0000000e+00 </wgt>
<wgt id='1955'> +0.0000000e+00 </wgt>
<wgt id='1956'> +0.0000000e+00 </wgt>
<wgt id='1957'> +0.0000000e+00 </wgt>
<wgt id='1958'> +0.0000000e+00 </wgt>
<wgt id='1959'> +0.0000000e+00 </wgt>
<wgt id='1960'> +0.0000000e+00 </wgt>
<wgt id='1961'> +0.0000000e+00 </wgt>
<wgt id='1962'> +0.0000000e+00 </wgt>
<wgt id='1963'> +0.0000000e+00 </wgt>
<wgt id='1964'> +0.0000000e+00 </wgt>
<wgt id='1965'> +0.0000000e+00 </wgt>
<wgt id='1966'> +0.0000000e+00 </wgt>
<wgt id='1967'> +0.0000000e+00 </wgt>
<wgt id='1968'> +0.0000000e+00 </wgt>
<wgt id='1969'> +0.0000000e+00 </wgt>
<wgt id='1970'> +0.0000000e+00 </wgt>
<wgt id='1971'> +0.0000000e+00 </wgt>
<wgt id='1972'> +0.0000000e+00 </wgt>
<wgt id='1973'> +0.0000000e+00 </wgt>
<wgt id='1974'> +0.0000000e+00 </wgt>
<wgt id='1975'> +0.0000000e+00 </wgt>
<wgt id='1976'> +0.0000000e+00 </wgt>
<wgt id='1977'> +0.0000000e+00 </wgt>
<wgt id='1978'> +0.0000000e+00 </wgt>
<wgt id='1979'> +0.0000000e+00 </wgt>
<wgt id='1980'> +0.0000000e+00 </wgt>
<wgt id='1981'> +0.0000000e+00 </wgt>
<wgt id='1982'> +0.0000000e+00 </wgt>
<wgt id='1983'> +0.0000000e+00 </wgt>
<wgt id='1984'> +0.0000000e+00 </wgt>
<wgt id='1985'> +0.0000000e+00 </wgt>
<wgt id='1986'> +0.0000000e+00 </wgt>
<wgt id='1987'> +0.0000000e+00 </wgt>
<wgt id='1988'> +0.0000000e+00 </wgt>
<wgt id='1989'> +0.0000000e+00 </wgt>
<wgt id='1990'> +0.0000000e+00 </wgt>
<wgt id='1991'> +0.0000000e+00 </wgt>
<wgt id='1992'> +0.0000000e+00 </wgt>
<wgt id='1993'> +0.0000000e+00 </wgt>
<wgt id='1994'> +0.0000000e+00 </wgt>
<wgt id='1995'> +0.0000000e+00 </wgt>
<wgt id='1996'> +0.0000000e+00 </wgt>
<wgt id='1997'> +0.0000000e+00 </wgt>
<wgt id='1998'> +0.0000000e+00 </wgt>
<wgt id='1999'> +0.0000000e+00 </wgt>
<wgt id='2000'> +0.0000000e+00 </wgt>
<wgt id='2001'> +0.0000000e+00 </wgt>
<wgt id='2002'> +0.0000000e+00 </wgt>
<wgt id='2003'> +0.0000000e+00 </wgt>
<wgt id='2004'> +0.0000000e+00 </wgt>
<wgt id='2005'> +0.0000000e+00 </wgt>
<wgt id='2006'> +0.0000000e+00 </wgt>
<wgt id='2007'> +0.0000000e+00 </wgt>
<wgt id='2008'> +0.0000000e+00 </wgt>
<wgt id='2009'> +0.0000000e+00 </wgt>
<wgt id='2010'> +0.0000000e+00 </wgt>
<wgt id='2011'> +0.0000000e+00 </wgt>
<wgt id='2012'> +0.0000000e+00 </wgt>
<wgt id='2013'> +0.0000000e+00 </wgt>
<wgt id='2014'> +0.0000000e+00 </wgt>
<wgt id='2015'> +0.0000000e+00 </wgt>
<wgt id='2016'> +0.0000000e+00 </wgt>
<wgt id='2017'> +0.0000000e+00 </wgt>
<wgt id='2018'> +0.0000000e+00 </wgt>
<wgt id='2019'> +0.0000000e+00 </wgt>
<wgt id='2020'> +0.0000000e+00 </wgt>
<wgt id='2021'> +0.0000000e+00 </wgt>
<wgt id='2022'> +0.0000000e+00 </wgt>
</rwgt>
</event>
<event>
14      1 +1.5732536e-04 2.73536600e+02 7.81860800e-03 1.12561600e-01
        1 -1    0    0  501    0 +0.0000000000e+00 +0.0000000000e+00 +1.0507759093e+03 1.0507759093e+03 5.0400000000e-03 0.0000e+00 -1.0000e+00
        5 -1    0    0  502    0 +0.0000000000e+00 +0.0000000000e+00 -8.6427414857e+02 8.6428692798e+02 4.7000000000e+00 0.0000e+00 -1.0000e+00
        1  1    1    2  501    0 -3.5661121536e+01 +4.5335606500e+01 +5.0641782339e+02 5.0969210773e+02 5.0400000000e-03 0.0000e+00 -1.0000e+00
      -24  2    1    2    0    0 -5.2889162538e+01 -8.9899985847e+01 -2.4399451025e+02 2.7730159189e+02 8.0520685938e+01 0.0000e+00 0.0000e+00
      -16  1    4    4    0    0 -6.3107152376e+00 -8.3949173889e+01 -1.6886872388e+02 1.8869004962e+02 0.0000000000e+00 0.0000e+00 1.0000e+00
       15  1    4    4    0    0 -4.6578447300e+01 -5.9508119578e+00 -7.5125786371e+01 8.8611542265e+01 1.7770000000e+00 0.0000e+00 -1.0000e+00
       23  2    1    2    0    0 -4.9112116339e+02 -7.6298370532e+01 -7.0432369299e+01 5.1150148536e+02 9.8242620094e+01 0.0000e+00 0.0000e+00
        3  1    7    7  503    0 -2.4778377350e+02 -8.7761991120e+01 -3.0233665496e+01 2.6459979257e+02 1.0100000000e-01 0.0000e+00 -1.0000e+00
       -3  1    7    7    0  503 -2.4333738989e+02 +1.1463620588e+01 -4.0198703803e+01 2.4690169279e+02 1.0100000000e-01 0.0000e+00 1.0000e+00
        6  2    1    2  502    0 +5.7967144747e+02 +1.2086274988e+02 -5.4891831166e+00 6.1656765231e+02 1.7175199396e+02 0.0000e+00 0.0000e+00
        5  1   10   10  502    0 +3.3773014216e+02 +3.2267392171e+01 -4.9772345128e+01 3.4293178602e+02 4.7000000000e+00 0.0000e+00 -1.0000e+00
       24  2   10   10    0    0 +2.4194130530e+02 +8.8595357708e+01 +4.4283162011e+01 2.7363586630e+02 8.0813713349e+01 0.0000e+00 0.0000e+00
        4  1   12   12  504    0 +1.8604334281e+02 +9.6522105997e+01 +5.3780549044e+01 2.1638531074e+02 1.2700000000e+00 0.0000e+00 -1.0000e+00
       -3  1   12   12    0  504 +5.5897962494e+01 -7.9267482896e+00 -9.4973870326e+00 5.7250555551e+01 1.0100000000e-01 0.0000e+00 1.0000e+00
<mgrwt>
<rscale>  0 0.12560936e+03</rscale>
<asrwt>0</asrwt>
<pdfrwt beam="1">  1        1 0.15011084e+00 0.57680437e+02</pdfrwt>
<pdfrwt beam="2">  1        5 0.12346940e+00 0.27353661e+03</pdfrwt>
<totfact> 0.22088444e+00</totfact>
</mgrwt>
<rwgt>
<wgt id='1001'> +1.5732536e-04 </wgt>
<wgt id='1002'> +1.3723825e-04 </wgt>
<wgt id='1003'> +1.3723815e-04 </wgt>
<wgt id='1004'> +1.4028322e-04 </wgt>
<wgt id='1005'> +1.3527733e-04 </wgt>
<wgt id='1006'> +1.5732536e-04 </wgt>
<wgt id='1007'> +1.3723825e-04 </wgt>
<wgt id='1008'> +1.3723815e-04 </wgt>
<wgt id='1009'> +1.4028322e-04 </wgt>
<wgt id='1010'> +1.3527733e-04 </wgt>
<wgt id='1011'> +1.5732536e-04 </wgt>
<wgt id='1012'> +1.3723825e-04 </wgt>
<wgt id='1013'> +1.3723815e-04 </wgt>
<wgt id='1014'> +1.4028322e-04 </wgt>
<wgt id='1015'> +1.3527733e-04 </wgt>
<wgt id='1016'> +1.5453296e-04 </wgt>
<wgt id='1017'> +1.3355853e-04 </wgt>
<wgt id='1018'> +1.3355842e-04 </wgt>
<wgt id='1019'> +1.3723815e-04 </wgt>
<wgt id='1020'> +1.3139063e-04 </wgt>
<wgt id='1021'> +1.5453296e-04 </wgt>
<wgt id='1022'> +1.3355853e-04 </wgt>
<wgt id='1023'> +1.3355842e-04 </wgt>
<wgt id='1024'> +1.3723815e-04 </wgt>
<wgt id='1025'> +1.3139063e-04 </wgt>
<wgt id='1026'> +1.5453296e-04 </wgt>
<wgt id='1027'> +1.3355853e-04 </wgt>
<wgt id='1028'> +1.3355842e-04 </wgt>
<wgt id='1029'> +1.3723815e-04 </wgt>
<wgt id='1030'> +1.3139063e-04 </wgt>
<wgt id='1031'> +1.5812765e-04 </wgt>
<wgt id='1032'> +1.4028329e-04 </wgt>
<wgt id='1033'> +1.4028322e-04 </wgt>
<wgt id='1034'> +1.4228380e-04 </wgt>
<wgt id='1035'> +1.3869084e-04 </wgt>
<wgt id='1036'> +1.5812765e-04 </wgt>
<wgt id='1037'> +1.4028329e-04 </wgt>
<wgt id='1038'> +1.4028322e-04 </wgt>
<wgt id='1039'> +1.4228380e-04 </wgt>
<wgt id='1040'> +1.3869084e-04 </wgt>
<wgt id='1041'> +1.5812765e-04 </wgt>
<wgt id='1042'> +1.4028329e-04 </wgt>
<wgt id='1043'> +1.4028322e-04 </wgt>
<wgt id='1044'> +1.4228380e-04 </wgt>
<wgt id='1045'> +1.3869084e-04 </wgt>
<wgt id='1046'> +1.5732536e-04 </wgt>
<wgt id='1047'> +1.5732536e-04 </wgt>
<wgt id='1048'> +0.0000000e+00 </wgt>
<wgt id='1049'> +0.0000000e+00 </wgt>
<wgt id='1050'> +0.0000000e+00 </wgt>
<wgt id='1051'> +0.0000000e+00 </wgt>
<wgt id='1052'> +0.0000000e+00 </wgt>
<wgt id='1053'> +0.0000000e+00 </wgt>
<wgt id='1054'> +0.0000000e+00 </wgt>
<wgt id='1055'> +0.0000000e+00 </wgt>
<wgt id='1056'> +0.0000000e+00 </wgt>
<wgt id='1057'> +0.0000000e+00 </wgt>
<wgt id='1058'> +0.0000000e+00 </wgt>
<wgt id='1059'> +0.0000000e+00 </wgt>
<wgt id='1060'> +0.0000000e+00 </wgt>
<wgt id='1061'> +0.0000000e+00 </wgt>
<wgt id='1062'> +0.0000000e+00 </wgt>
<wgt id='1063'> +0.0000000e+00 </wgt>
<wgt id='1064'> +0.0000000e+00 </wgt>
<wgt id='1065'> +0.0000000e+00 </wgt>
<wgt id='1066'> +0.0000000e+00 </wgt>
<wgt id='1067'> +0.0000000e+00 </wgt>
<wgt id='1068'> +0.0000000e+00 </wgt>
<wgt id='1069'> +0.0000000e+00 </wgt>
<wgt id='1070'> +0.0000000e+00 </wgt>
<wgt id='1071'> +0.0000000e+00 </wgt>
<wgt id='1072'> +0.0000000e+00 </wgt>
<wgt id='1073'> +0.0000000e+00 </wgt>
<wgt id='1074'> +0.0000000e+00 </wgt>
<wgt id='1075'> +0.0000000e+00 </wgt>
<wgt id='1076'> +0.0000000e+00 </wgt>
<wgt id='1077'> +0.0000000e+00 </wgt>
<wgt id='1078'> +0.0000000e+00 </wgt>
<wgt id='1079'> +0.0000000e+00 </wgt>
<wgt id='1080'> +0.0000000e+00 </wgt>
<wgt id='1081'> +0.0000000e+00 </wgt>
<wgt id='1082'> +0.0000000e+00 </wgt>
<wgt id='1083'> +0.0000000e+00 </wgt>
<wgt id='1084'> +0.0000000e+00 </wgt>
<wgt id='1085'> +0.0000000e+00 </wgt>
<wgt id='1086'> +0.0000000e+00 </wgt>
<wgt id='1087'> +0.0000000e+00 </wgt>
<wgt id='1088'> +0.0000000e+00 </wgt>
<wgt id='1089'> +0.0000000e+00 </wgt>
<wgt id='1090'> +0.0000000e+00 </wgt>
<wgt id='1091'> +0.0000000e+00 </wgt>
<wgt id='1092'> +0.0000000e+00 </wgt>
<wgt id='1093'> +0.0000000e+00 </wgt>
<wgt id='1094'> +0.0000000e+00 </wgt>
<wgt id='1095'> +0.0000000e+00 </wgt>
<wgt id='1096'> +0.0000000e+00 </wgt>
<wgt id='1097'> +0.0000000e+00 </wgt>
<wgt id='1098'> +0.0000000e+00 </wgt>
<wgt id='1099'> +0.0000000e+00 </wgt>
<wgt id='1100'> +0.0000000e+00 </wgt>
<wgt id='1101'> +0.0000000e+00 </wgt>
<wgt id='1102'> +0.0000000e+00 </wgt>
<wgt id='1103'> +0.0000000e+00 </wgt>
<wgt id='1104'> +0.0000000e+00 </wgt>
<wgt id='1105'> +0.0000000e+00 </wgt>
<wgt id='1106'> +0.0000000e+00 </wgt>
<wgt id='1107'> +0.0000000e+00 </wgt>
<wgt id='1108'> +0.0000000e+00 </wgt>
<wgt id='1109'> +0.0000000e+00 </wgt>
<wgt id='1110'> +0.0000000e+00 </wgt>
<wgt id='1111'> +0.0000000e+00 </wgt>
<wgt id='1112'> +0.0000000e+00 </wgt>
<wgt id='1113'> +0.0000000e+00 </wgt>
<wgt id='1114'> +0.0000000e+00 </wgt>
<wgt id='1115'> +0.0000000e+00 </wgt>
<wgt id='1116'> +0.0000000e+00 </wgt>
<wgt id='1117'> +0.0000000e+00 </wgt>
<wgt id='1118'> +0.0000000e+00 </wgt>
<wgt id='1119'> +0.0000000e+00 </wgt>
<wgt id='1120'> +0.0000000e+00 </wgt>
<wgt id='1121'> +0.0000000e+00 </wgt>
<wgt id='1122'> +0.0000000e+00 </wgt>
<wgt id='1123'> +0.0000000e+00 </wgt>
<wgt id='1124'> +0.0000000e+00 </wgt>
<wgt id='1125'> +0.0000000e+00 </wgt>
<wgt id='1126'> +0.0000000e+00 </wgt>
<wgt id='1127'> +0.0000000e+00 </wgt>
<wgt id='1128'> +0.0000000e+00 </wgt>
<wgt id='1129'> +0.0000000e+00 </wgt>
<wgt id='1130'> +0.0000000e+00 </wgt>
<wgt id='1131'> +0.0000000e+00 </wgt>
<wgt id='1132'> +0.0000000e+00 </wgt>
<wgt id='1133'> +0.0000000e+00 </wgt>
<wgt id='1134'> +0.0000000e+00 </wgt>
<wgt id='1135'> +0.0000000e+00 </wgt>
<wgt id='1136'> +0.0000000e+00 </wgt>
<wgt id='1137'> +0.0000000e+00 </wgt>
<wgt id='1138'> +0.0000000e+00 </wgt>
<wgt id='1139'> +0.0000000e+00 </wgt>
<wgt id='1140'> +0.0000000e+00 </wgt>
<wgt id='1141'> +0.0000000e+00 </wgt>
<wgt id='1142'> +0.0000000e+00 </wgt>
<wgt id='1143'> +0.0000000e+00 </wgt>
<wgt id='1144'> +0.0000000e+00 </wgt>
<wgt id='1145'> +0.0000000e+00 </wgt>
<wgt id='1146'> +0.0000000e+00 </wgt>
<wgt id='1147'> +0.0000000e+00 </wgt>
<wgt id='1148'> +0.0000000e+00 </wgt>
<wgt id='1149'> +0.0000000e+00 </wgt>
<wgt id='1150'> +0.0000000e+00 </wgt>
<wgt id='1151'> +0.0000000e+00 </wgt>
<wgt id='1152'> +0.0000000e+00 </wgt>
<wgt id='1153'> +0.0000000e+00 </wgt>
<wgt id='1154'> +0.0000000e+00 </wgt>
<wgt id='1155'> +0.0000000e+00 </wgt>
<wgt id='1156'> +0.0000000e+00 </wgt>
<wgt id='1157'> +0.0000000e+00 </wgt>
<wgt id='1158'> +0.0000000e+00 </wgt>
<wgt id='1159'> +0.0000000e+00 </wgt>
<wgt id='1160'> +0.0000000e+00 </wgt>
<wgt id='1161'> +0.0000000e+00 </wgt>
<wgt id='1162'> +0.0000000e+00 </wgt>
<wgt id='1163'> +0.0000000e+00 </wgt>
<wgt id='1164'> +0.0000000e+00 </wgt>
<wgt id='1165'> +0.0000000e+00 </wgt>
<wgt id='1166'> +0.0000000e+00 </wgt>
<wgt id='1167'> +0.0000000e+00 </wgt>
<wgt id='1168'> +0.0000000e+00 </wgt>
<wgt id='1169'> +0.0000000e+00 </wgt>
<wgt id='1170'> +0.0000000e+00 </wgt>
<wgt id='1171'> +0.0000000e+00 </wgt>
<wgt id='1172'> +0.0000000e+00 </wgt>
<wgt id='1173'> +0.0000000e+00 </wgt>
<wgt id='1174'> +0.0000000e+00 </wgt>
<wgt id='1175'> +0.0000000e+00 </wgt>
<wgt id='1176'> +0.0000000e+00 </wgt>
<wgt id='1177'> +0.0000000e+00 </wgt>
<wgt id='1178'> +0.0000000e+00 </wgt>
<wgt id='1179'> +0.0000000e+00 </wgt>
<wgt id='1180'> +0.0000000e+00 </wgt>
<wgt id='1181'> +0.0000000e+00 </wgt>
<wgt id='1182'> +0.0000000e+00 </wgt>
<wgt id='1183'> +0.0000000e+00 </wgt>
<wgt id='1184'> +0.0000000e+00 </wgt>
<wgt id='1185'> +0.0000000e+00 </wgt>
<wgt id='1186'> +0.0000000e+00 </wgt>
<wgt id='1187'> +0.0000000e+00 </wgt>
<wgt id='1188'> +0.0000000e+00 </wgt>
<wgt id='1189'> +0.0000000e+00 </wgt>
<wgt id='1190'> +0.0000000e+00 </wgt>
<wgt id='1191'> +0.0000000e+00 </wgt>
<wgt id='1192'> +0.0000000e+00 </wgt>
<wgt id='1193'> +0.0000000e+00 </wgt>
<wgt id='1194'> +0.0000000e+00 </wgt>
<wgt id='1195'> +0.0000000e+00 </wgt>
<wgt id='1196'> +0.0000000e+00 </wgt>
<wgt id='1197'> +0.0000000e+00 </wgt>
<wgt id='1198'> +0.0000000e+00 </wgt>
<wgt id='1199'> +0.0000000e+00 </wgt>
<wgt id='1200'> +0.0000000e+00 </wgt>
<wgt id='1201'> +0.0000000e+00 </wgt>
<wgt id='1202'> +0.0000000e+00 </wgt>
<wgt id='1203'> +0.0000000e+00 </wgt>
<wgt id='1204'> +0.0000000e+00 </wgt>
<wgt id='1205'> +0.0000000e+00 </wgt>
<wgt id='1206'> +0.0000000e+00 </wgt>
<wgt id='1207'> +0.0000000e+00 </wgt>
<wgt id='1208'> +0.0000000e+00 </wgt>
<wgt id='1209'> +0.0000000e+00 </wgt>
<wgt id='1210'> +0.0000000e+00 </wgt>
<wgt id='1211'> +0.0000000e+00 </wgt>
<wgt id='1212'> +0.0000000e+00 </wgt>
<wgt id='1213'> +0.0000000e+00 </wgt>
<wgt id='1214'> +0.0000000e+00 </wgt>
<wgt id='1215'> +0.0000000e+00 </wgt>
<wgt id='1216'> +0.0000000e+00 </wgt>
<wgt id='1217'> +0.0000000e+00 </wgt>
<wgt id='1218'> +0.0000000e+00 </wgt>
<wgt id='1219'> +0.0000000e+00 </wgt>
<wgt id='1220'> +0.0000000e+00 </wgt>
<wgt id='1221'> +0.0000000e+00 </wgt>
<wgt id='1222'> +0.0000000e+00 </wgt>
<wgt id='1223'> +0.0000000e+00 </wgt>
<wgt id='1224'> +0.0000000e+00 </wgt>
<wgt id='1225'> +0.0000000e+00 </wgt>
<wgt id='1226'> +0.0000000e+00 </wgt>
<wgt id='1227'> +0.0000000e+00 </wgt>
<wgt id='1228'> +0.0000000e+00 </wgt>
<wgt id='1229'> +0.0000000e+00 </wgt>
<wgt id='1230'> +0.0000000e+00 </wgt>
<wgt id='1231'> +0.0000000e+00 </wgt>
<wgt id='1232'> +0.0000000e+00 </wgt>
<wgt id='1233'> +0.0000000e+00 </wgt>
<wgt id='1234'> +0.0000000e+00 </wgt>
<wgt id='1235'> +0.0000000e+00 </wgt>
<wgt id='1236'> +0.0000000e+00 </wgt>
<wgt id='1237'> +0.0000000e+00 </wgt>
<wgt id='1238'> +0.0000000e+00 </wgt>
<wgt id='1239'> +0.0000000e+00 </wgt>
<wgt id='1240'> +0.0000000e+00 </wgt>
<wgt id='1241'> +0.0000000e+00 </wgt>
<wgt id='1242'> +0.0000000e+00 </wgt>
<wgt id='1243'> +0.0000000e+00 </wgt>
<wgt id='1244'> +0.0000000e+00 </wgt>
<wgt id='1245'> +0.0000000e+00 </wgt>
<wgt id='1246'> +0.0000000e+00 </wgt>
<wgt id='1247'> +0.0000000e+00 </wgt>
<wgt id='1248'> +0.0000000e+00 </wgt>
<wgt id='1249'> +0.0000000e+00 </wgt>
<wgt id='1250'> +0.0000000e+00 </wgt>
<wgt id='1251'> +0.0000000e+00 </wgt>
<wgt id='1252'> +0.0000000e+00 </wgt>
<wgt id='1253'> +0.0000000e+00 </wgt>
<wgt id='1254'> +0.0000000e+00 </wgt>
<wgt id='1255'> +0.0000000e+00 </wgt>
<wgt id='1256'> +0.0000000e+00 </wgt>
<wgt id='1257'> +0.0000000e+00 </wgt>
<wgt id='1258'> +0.0000000e+00 </wgt>
<wgt id='1259'> +0.0000000e+00 </wgt>
<wgt id='1260'> +0.0000000e+00 </wgt>
<wgt id='1261'> +0.0000000e+00 </wgt>
<wgt id='1262'> +0.0000000e+00 </wgt>
<wgt id='1263'> +0.0000000e+00 </wgt>
<wgt id='1264'> +0.0000000e+00 </wgt>
<wgt id='1265'> +0.0000000e+00 </wgt>
<wgt id='1266'> +0.0000000e+00 </wgt>
<wgt id='1267'> +0.0000000e+00 </wgt>
<wgt id='1268'> +0.0000000e+00 </wgt>
<wgt id='1269'> +0.0000000e+00 </wgt>
<wgt id='1270'> +0.0000000e+00 </wgt>
<wgt id='1271'> +0.0000000e+00 </wgt>
<wgt id='1272'> +0.0000000e+00 </wgt>
<wgt id='1273'> +0.0000000e+00 </wgt>
<wgt id='1274'> +0.0000000e+00 </wgt>
<wgt id='1275'> +0.0000000e+00 </wgt>
<wgt id='1276'> +0.0000000e+00 </wgt>
<wgt id='1277'> +0.0000000e+00 </wgt>
<wgt id='1278'> +0.0000000e+00 </wgt>
<wgt id='1279'> +0.0000000e+00 </wgt>
<wgt id='1280'> +0.0000000e+00 </wgt>
<wgt id='1281'> +0.0000000e+00 </wgt>
<wgt id='1282'> +0.0000000e+00 </wgt>
<wgt id='1283'> +0.0000000e+00 </wgt>
<wgt id='1284'> +0.0000000e+00 </wgt>
<wgt id='1285'> +0.0000000e+00 </wgt>
<wgt id='1286'> +0.0000000e+00 </wgt>
<wgt id='1287'> +0.0000000e+00 </wgt>
<wgt id='1288'> +0.0000000e+00 </wgt>
<wgt id='1289'> +0.0000000e+00 </wgt>
<wgt id='1290'> +0.0000000e+00 </wgt>
<wgt id='1291'> +0.0000000e+00 </wgt>
<wgt id='1292'> +0.0000000e+00 </wgt>
<wgt id='1293'> +0.0000000e+00 </wgt>
<wgt id='1294'> +0.0000000e+00 </wgt>
<wgt id='1295'> +0.0000000e+00 </wgt>
<wgt id='1296'> +0.0000000e+00 </wgt>
<wgt id='1297'> +0.0000000e+00 </wgt>
<wgt id='1298'> +0.0000000e+00 </wgt>
<wgt id='1299'> +0.0000000e+00 </wgt>
<wgt id='1300'> +0.0000000e+00 </wgt>
<wgt id='1301'> +0.0000000e+00 </wgt>
<wgt id='1302'> +0.0000000e+00 </wgt>
<wgt id='1303'> +0.0000000e+00 </wgt>
<wgt id='1304'> +0.0000000e+00 </wgt>
<wgt id='1305'> +0.0000000e+00 </wgt>
<wgt id='1306'> +0.0000000e+00 </wgt>
<wgt id='1307'> +0.0000000e+00 </wgt>
<wgt id='1308'> +0.0000000e+00 </wgt>
<wgt id='1309'> +0.0000000e+00 </wgt>
<wgt id='1310'> +0.0000000e+00 </wgt>
<wgt id='1311'> +0.0000000e+00 </wgt>
<wgt id='1312'> +0.0000000e+00 </wgt>
<wgt id='1313'> +0.0000000e+00 </wgt>
<wgt id='1314'> +0.0000000e+00 </wgt>
<wgt id='1315'> +0.0000000e+00 </wgt>
<wgt id='1316'> +0.0000000e+00 </wgt>
<wgt id='1317'> +0.0000000e+00 </wgt>
<wgt id='1318'> +0.0000000e+00 </wgt>
<wgt id='1319'> +0.0000000e+00 </wgt>
<wgt id='1320'> +0.0000000e+00 </wgt>
<wgt id='1321'> +0.0000000e+00 </wgt>
<wgt id='1322'> +0.0000000e+00 </wgt>
<wgt id='1323'> +0.0000000e+00 </wgt>
<wgt id='1324'> +0.0000000e+00 </wgt>
<wgt id='1325'> +0.0000000e+00 </wgt>
<wgt id='1326'> +0.0000000e+00 </wgt>
<wgt id='1327'> +0.0000000e+00 </wgt>
<wgt id='1328'> +0.0000000e+00 </wgt>
<wgt id='1329'> +0.0000000e+00 </wgt>
<wgt id='1330'> +0.0000000e+00 </wgt>
<wgt id='1331'> +0.0000000e+00 </wgt>
<wgt id='1332'> +0.0000000e+00 </wgt>
<wgt id='1333'> +0.0000000e+00 </wgt>
<wgt id='1334'> +0.0000000e+00 </wgt>
<wgt id='1335'> +0.0000000e+00 </wgt>
<wgt id='1336'> +0.0000000e+00 </wgt>
<wgt id='1337'> +0.0000000e+00 </wgt>
<wgt id='1338'> +0.0000000e+00 </wgt>
<wgt id='1339'> +0.0000000e+00 </wgt>
<wgt id='1340'> +0.0000000e+00 </wgt>
<wgt id='1341'> +0.0000000e+00 </wgt>
<wgt id='1342'> +0.0000000e+00 </wgt>
<wgt id='1343'> +0.0000000e+00 </wgt>
<wgt id='1344'> +0.0000000e+00 </wgt>
<wgt id='1345'> +0.0000000e+00 </wgt>
<wgt id='1346'> +0.0000000e+00 </wgt>
<wgt id='1347'> +0.0000000e+00 </wgt>
<wgt id='1348'> +0.0000000e+00 </wgt>
<wgt id='1349'> +0.0000000e+00 </wgt>
<wgt id='1350'> +0.0000000e+00 </wgt>
<wgt id='1351'> +0.0000000e+00 </wgt>
<wgt id='1352'> +0.0000000e+00 </wgt>
<wgt id='1353'> +0.0000000e+00 </wgt>
<wgt id='1354'> +0.0000000e+00 </wgt>
<wgt id='1355'> +0.0000000e+00 </wgt>
<wgt id='1356'> +0.0000000e+00 </wgt>
<wgt id='1357'> +0.0000000e+00 </wgt>
<wgt id='1358'> +0.0000000e+00 </wgt>
<wgt id='1359'> +0.0000000e+00 </wgt>
<wgt id='1360'> +0.0000000e+00 </wgt>
<wgt id='1361'> +0.0000000e+00 </wgt>
<wgt id='1362'> +0.0000000e+00 </wgt>
<wgt id='1363'> +0.0000000e+00 </wgt>
<wgt id='1364'> +0.0000000e+00 </wgt>
<wgt id='1365'> +0.0000000e+00 </wgt>
<wgt id='1366'> +0.0000000e+00 </wgt>
<wgt id='1367'> +0.0000000e+00 </wgt>
<wgt id='1368'> +0.0000000e+00 </wgt>
<wgt id='1369'> +0.0000000e+00 </wgt>
<wgt id='1370'> +0.0000000e+00 </wgt>
<wgt id='1371'> +0.0000000e+00 </wgt>
<wgt id='1372'> +0.0000000e+00 </wgt>
<wgt id='1373'> +0.0000000e+00 </wgt>
<wgt id='1374'> +0.0000000e+00 </wgt>
<wgt id='1375'> +0.0000000e+00 </wgt>
<wgt id='1376'> +0.0000000e+00 </wgt>
<wgt id='1377'> +0.0000000e+00 </wgt>
<wgt id='1378'> +0.0000000e+00 </wgt>
<wgt id='1379'> +0.0000000e+00 </wgt>
<wgt id='1380'> +0.0000000e+00 </wgt>
<wgt id='1381'> +0.0000000e+00 </wgt>
<wgt id='1382'> +0.0000000e+00 </wgt>
<wgt id='1383'> +0.0000000e+00 </wgt>
<wgt id='1384'> +0.0000000e+00 </wgt>
<wgt id='1385'> +0.0000000e+00 </wgt>
<wgt id='1386'> +0.0000000e+00 </wgt>
<wgt id='1387'> +0.0000000e+00 </wgt>
<wgt id='1388'> +0.0000000e+00 </wgt>
<wgt id='1389'> +0.0000000e+00 </wgt>
<wgt id='1390'> +0.0000000e+00 </wgt>
<wgt id='1391'> +0.0000000e+00 </wgt>
<wgt id='1392'> +0.0000000e+00 </wgt>
<wgt id='1393'> +0.0000000e+00 </wgt>
<wgt id='1394'> +0.0000000e+00 </wgt>
<wgt id='1395'> +0.0000000e+00 </wgt>
<wgt id='1396'> +0.0000000e+00 </wgt>
<wgt id='1397'> +0.0000000e+00 </wgt>
<wgt id='1398'> +0.0000000e+00 </wgt>
<wgt id='1399'> +0.0000000e+00 </wgt>
<wgt id='1400'> +0.0000000e+00 </wgt>
<wgt id='1401'> +0.0000000e+00 </wgt>
<wgt id='1402'> +0.0000000e+00 </wgt>
<wgt id='1403'> +0.0000000e+00 </wgt>
<wgt id='1404'> +0.0000000e+00 </wgt>
<wgt id='1405'> +0.0000000e+00 </wgt>
<wgt id='1406'> +0.0000000e+00 </wgt>
<wgt id='1407'> +0.0000000e+00 </wgt>
<wgt id='1408'> +0.0000000e+00 </wgt>
<wgt id='1409'> +0.0000000e+00 </wgt>
<wgt id='1410'> +0.0000000e+00 </wgt>
<wgt id='1411'> +0.0000000e+00 </wgt>
<wgt id='1412'> +0.0000000e+00 </wgt>
<wgt id='1413'> +0.0000000e+00 </wgt>
<wgt id='1414'> +0.0000000e+00 </wgt>
<wgt id='1415'> +0.0000000e+00 </wgt>
<wgt id='1416'> +0.0000000e+00 </wgt>
<wgt id='1417'> +0.0000000e+00 </wgt>
<wgt id='1418'> +0.0000000e+00 </wgt>
<wgt id='1419'> +0.0000000e+00 </wgt>
<wgt id='1420'> +0.0000000e+00 </wgt>
<wgt id='1421'> +0.0000000e+00 </wgt>
<wgt id='1422'> +0.0000000e+00 </wgt>
<wgt id='1423'> +0.0000000e+00 </wgt>
<wgt id='1424'> +0.0000000e+00 </wgt>
<wgt id='1425'> +0.0000000e+00 </wgt>
<wgt id='1426'> +0.0000000e+00 </wgt>
<wgt id='1427'> +0.0000000e+00 </wgt>
<wgt id='1428'> +0.0000000e+00 </wgt>
<wgt id='1429'> +0.0000000e+00 </wgt>
<wgt id='1430'> +0.0000000e+00 </wgt>
<wgt id='1431'> +0.0000000e+00 </wgt>
<wgt id='1432'> +0.0000000e+00 </wgt>
<wgt id='1433'> +0.0000000e+00 </wgt>
<wgt id='1434'> +0.0000000e+00 </wgt>
<wgt id='1435'> +0.0000000e+00 </wgt>
<wgt id='1436'> +0.0000000e+00 </wgt>
<wgt id='1437'> +0.0000000e+00 </wgt>
<wgt id='1438'> +0.0000000e+00 </wgt>
<wgt id='1439'> +0.0000000e+00 </wgt>
<wgt id='1440'> +0.0000000e+00 </wgt>
<wgt id='1441'> +0.0000000e+00 </wgt>
<wgt id='1442'> +0.0000000e+00 </wgt>
<wgt id='1443'> +0.0000000e+00 </wgt>
<wgt id='1444'> +0.0000000e+00 </wgt>
<wgt id='1445'> +0.0000000e+00 </wgt>
<wgt id='1446'> +0.0000000e+00 </wgt>
<wgt id='1447'> +0.0000000e+00 </wgt>
<wgt id='1448'> +0.0000000e+00 </wgt>
<wgt id='1449'> +0.0000000e+00 </wgt>
<wgt id='1450'> +0.0000000e+00 </wgt>
<wgt id='1451'> +0.0000000e+00 </wgt>
<wgt id='1452'> +0.0000000e+00 </wgt>
<wgt id='1453'> +0.0000000e+00 </wgt>
<wgt id='1454'> +0.0000000e+00 </wgt>
<wgt id='1455'> +0.0000000e+00 </wgt>
<wgt id='1456'> +0.0000000e+00 </wgt>
<wgt id='1457'> +0.0000000e+00 </wgt>
<wgt id='1458'> +0.0000000e+00 </wgt>
<wgt id='1459'> +0.0000000e+00 </wgt>
<wgt id='1460'> +0.0000000e+00 </wgt>
<wgt id='1461'> +0.0000000e+00 </wgt>
<wgt id='1462'> +0.0000000e+00 </wgt>
<wgt id='1463'> +0.0000000e+00 </wgt>
<wgt id='1464'> +0.0000000e+00 </wgt>
<wgt id='1465'> +0.0000000e+00 </wgt>
<wgt id='1466'> +0.0000000e+00 </wgt>
<wgt id='1467'> +0.0000000e+00 </wgt>
<wgt id='1468'> +0.0000000e+00 </wgt>
<wgt id='1469'> +0.0000000e+00 </wgt>
<wgt id='1470'> +0.0000000e+00 </wgt>
<wgt id='1471'> +0.0000000e+00 </wgt>
<wgt id='1472'> +0.0000000e+00 </wgt>
<wgt id='1473'> +0.0000000e+00 </wgt>
<wgt id='1474'> +0.0000000e+00 </wgt>
<wgt id='1475'> +0.0000000e+00 </wgt>
<wgt id='1476'> +0.0000000e+00 </wgt>
<wgt id='1477'> +0.0000000e+00 </wgt>
<wgt id='1478'> +0.0000000e+00 </wgt>
<wgt id='1479'> +0.0000000e+00 </wgt>
<wgt id='1480'> +0.0000000e+00 </wgt>
<wgt id='1481'> +0.0000000e+00 </wgt>
<wgt id='1482'> +0.0000000e+00 </wgt>
<wgt id='1483'> +0.0000000e+00 </wgt>
<wgt id='1484'> +0.0000000e+00 </wgt>
<wgt id='1485'> +0.0000000e+00 </wgt>
<wgt id='1486'> +0.0000000e+00 </wgt>
<wgt id='1487'> +0.0000000e+00 </wgt>
<wgt id='1488'> +0.0000000e+00 </wgt>
<wgt id='1489'> +0.0000000e+00 </wgt>
<wgt id='1490'> +0.0000000e+00 </wgt>
<wgt id='1491'> +0.0000000e+00 </wgt>
<wgt id='1492'> +0.0000000e+00 </wgt>
<wgt id='1493'> +0.0000000e+00 </wgt>
<wgt id='1494'> +0.0000000e+00 </wgt>
<wgt id='1495'> +0.0000000e+00 </wgt>
<wgt id='1496'> +0.0000000e+00 </wgt>
<wgt id='1497'> +0.0000000e+00 </wgt>
<wgt id='1498'> +0.0000000e+00 </wgt>
<wgt id='1499'> +0.0000000e+00 </wgt>
<wgt id='1500'> +0.0000000e+00 </wgt>
<wgt id='1501'> +0.0000000e+00 </wgt>
<wgt id='1502'> +0.0000000e+00 </wgt>
<wgt id='1503'> +0.0000000e+00 </wgt>
<wgt id='1504'> +0.0000000e+00 </wgt>
<wgt id='1505'> +0.0000000e+00 </wgt>
<wgt id='1506'> +0.0000000e+00 </wgt>
<wgt id='1507'> +0.0000000e+00 </wgt>
<wgt id='1508'> +0.0000000e+00 </wgt>
<wgt id='1509'> +0.0000000e+00 </wgt>
<wgt id='1510'> +0.0000000e+00 </wgt>
<wgt id='1511'> +0.0000000e+00 </wgt>
<wgt id='1512'> +0.0000000e+00 </wgt>
<wgt id='1513'> +0.0000000e+00 </wgt>
<wgt id='1514'> +0.0000000e+00 </wgt>
<wgt id='1515'> +0.0000000e+00 </wgt>
<wgt id='1516'> +0.0000000e+00 </wgt>
<wgt id='1517'> +0.0000000e+00 </wgt>
<wgt id='1518'> +0.0000000e+00 </wgt>
<wgt id='1519'> +0.0000000e+00 </wgt>
<wgt id='1520'> +0.0000000e+00 </wgt>
<wgt id='1521'> +0.0000000e+00 </wgt>
<wgt id='1522'> +0.0000000e+00 </wgt>
<wgt id='1523'> +0.0000000e+00 </wgt>
<wgt id='1524'> +0.0000000e+00 </wgt>
<wgt id='1525'> +0.0000000e+00 </wgt>
<wgt id='1526'> +0.0000000e+00 </wgt>
<wgt id='1527'> +0.0000000e+00 </wgt>
<wgt id='1528'> +0.0000000e+00 </wgt>
<wgt id='1529'> +0.0000000e+00 </wgt>
<wgt id='1530'> +0.0000000e+00 </wgt>
<wgt id='1531'> +0.0000000e+00 </wgt>
<wgt id='1532'> +0.0000000e+00 </wgt>
<wgt id='1533'> +0.0000000e+00 </wgt>
<wgt id='1534'> +0.0000000e+00 </wgt>
<wgt id='1535'> +0.0000000e+00 </wgt>
<wgt id='1536'> +0.0000000e+00 </wgt>
<wgt id='1537'> +0.0000000e+00 </wgt>
<wgt id='1538'> +0.0000000e+00 </wgt>
<wgt id='1539'> +0.0000000e+00 </wgt>
<wgt id='1540'> +0.0000000e+00 </wgt>
<wgt id='1541'> +0.0000000e+00 </wgt>
<wgt id='1542'> +0.0000000e+00 </wgt>
<wgt id='1543'> +0.0000000e+00 </wgt>
<wgt id='1544'> +0.0000000e+00 </wgt>
<wgt id='1545'> +0.0000000e+00 </wgt>
<wgt id='1546'> +0.0000000e+00 </wgt>
<wgt id='1547'> +0.0000000e+00 </wgt>
<wgt id='1548'> +0.0000000e+00 </wgt>
<wgt id='1549'> +0.0000000e+00 </wgt>
<wgt id='1550'> +0.0000000e+00 </wgt>
<wgt id='1551'> +0.0000000e+00 </wgt>
<wgt id='1552'> +0.0000000e+00 </wgt>
<wgt id='1553'> +0.0000000e+00 </wgt>
<wgt id='1554'> +0.0000000e+00 </wgt>
<wgt id='1555'> +0.0000000e+00 </wgt>
<wgt id='1556'> +0.0000000e+00 </wgt>
<wgt id='1557'> +0.0000000e+00 </wgt>
<wgt id='1558'> +0.0000000e+00 </wgt>
<wgt id='1559'> +0.0000000e+00 </wgt>
<wgt id='1560'> +0.0000000e+00 </wgt>
<wgt id='1561'> +0.0000000e+00 </wgt>
<wgt id='1562'> +0.0000000e+00 </wgt>
<wgt id='1563'> +0.0000000e+00 </wgt>
<wgt id='1564'> +0.0000000e+00 </wgt>
<wgt id='1565'> +0.0000000e+00 </wgt>
<wgt id='1566'> +0.0000000e+00 </wgt>
<wgt id='1567'> +0.0000000e+00 </wgt>
<wgt id='1568'> +0.0000000e+00 </wgt>
<wgt id='1569'> +0.0000000e+00 </wgt>
<wgt id='1570'> +0.0000000e+00 </wgt>
<wgt id='1571'> +0.0000000e+00 </wgt>
<wgt id='1572'> +0.0000000e+00 </wgt>
<wgt id='1573'> +0.0000000e+00 </wgt>
<wgt id='1574'> +0.0000000e+00 </wgt>
<wgt id='1575'> +0.0000000e+00 </wgt>
<wgt id='1576'> +0.0000000e+00 </wgt>
<wgt id='1577'> +0.0000000e+00 </wgt>
<wgt id='1578'> +0.0000000e+00 </wgt>
<wgt id='1579'> +0.0000000e+00 </wgt>
<wgt id='1580'> +0.0000000e+00 </wgt>
<wgt id='1581'> +0.0000000e+00 </wgt>
<wgt id='1582'> +0.0000000e+00 </wgt>
<wgt id='1583'> +0.0000000e+00 </wgt>
<wgt id='1584'> +0.0000000e+00 </wgt>
<wgt id='1585'> +0.0000000e+00 </wgt>
<wgt id='1586'> +0.0000000e+00 </wgt>
<wgt id='1587'> +0.0000000e+00 </wgt>
<wgt id='1588'> +0.0000000e+00 </wgt>
<wgt id='1589'> +0.0000000e+00 </wgt>
<wgt id='1590'> +0.0000000e+00 </wgt>
<wgt id='1591'> +0.0000000e+00 </wgt>
<wgt id='1592'> +0.0000000e+00 </wgt>
<wgt id='1593'> +0.0000000e+00 </wgt>
<wgt id='1594'> +0.0000000e+00 </wgt>
<wgt id='1595'> +0.0000000e+00 </wgt>
<wgt id='1596'> +0.0000000e+00 </wgt>
<wgt id='1597'> +0.0000000e+00 </wgt>
<wgt id='1598'> +0.0000000e+00 </wgt>
<wgt id='1599'> +0.0000000e+00 </wgt>
<wgt id='1600'> +0.0000000e+00 </wgt>
<wgt id='1601'> +0.0000000e+00 </wgt>
<wgt id='1602'> +0.0000000e+00 </wgt>
<wgt id='1603'> +0.0000000e+00 </wgt>
<wgt id='1604'> +0.0000000e+00 </wgt>
<wgt id='1605'> +0.0000000e+00 </wgt>
<wgt id='1606'> +0.0000000e+00 </wgt>
<wgt id='1607'> +0.0000000e+00 </wgt>
<wgt id='1608'> +0.0000000e+00 </wgt>
<wgt id='1609'> +0.0000000e+00 </wgt>
<wgt id='1610'> +0.0000000e+00 </wgt>
<wgt id='1611'> +0.0000000e+00 </wgt>
<wgt id='1612'> +1.5698149e-04 </wgt>
<wgt id='1613'> +1.5679129e-04 </wgt>
<wgt id='1614'> +1.5677736e-04 </wgt>
<wgt id='1615'> +1.5677982e-04 </wgt>
<wgt id='1616'> +1.5726245e-04 </wgt>
<wgt id='1617'> +1.5701257e-04 </wgt>
<wgt id='1618'> +1.5691757e-04 </wgt>
<wgt id='1619'> +1.5704149e-04 </wgt>
<wgt id='1620'> +1.5691990e-04 </wgt>
<wgt id='1621'> +1.5687806e-04 </wgt>
<wgt id='1622'> +1.5683734e-04 </wgt>
<wgt id='1623'> +1.5610197e-04 </wgt>
<wgt id='1624'> +1.5637290e-04 </wgt>
<wgt id='1625'> +1.5599093e-04 </wgt>
<wgt id='1626'> +1.5624962e-04 </wgt>
<wgt id='1627'> +1.5685027e-04 </wgt>
<wgt id='1628'> +1.5736434e-04 </wgt>
<wgt id='1629'> +1.5681527e-04 </wgt>
<wgt id='1630'> +1.5643063e-04 </wgt>
<wgt id='1631'> +1.5676298e-04 </wgt>
<wgt id='1632'> +1.5623850e-04 </wgt>
<wgt id='1633'> +1.5723100e-04 </wgt>
<wgt id='1634'> +1.5655840e-04 </wgt>
<wgt id='1635'> +1.5665800e-04 </wgt>
<wgt id='1636'> +1.5745778e-04 </wgt>
<wgt id='1637'> +1.5651819e-04 </wgt>
<wgt id='1638'> +1.5698521e-04 </wgt>
<wgt id='1639'> +1.5745972e-04 </wgt>
<wgt id='1640'> +1.5737801e-04 </wgt>
<wgt id='1641'> +1.5620293e-04 </wgt>
<wgt id='1642'> +1.5641859e-04 </wgt>
<wgt id='1643'> +1.5657852e-04 </wgt>
<wgt id='1644'> +1.5699331e-04 </wgt>
<wgt id='1645'> +1.5715240e-04 </wgt>
<wgt id='1646'> +1.5646474e-04 </wgt>
<wgt id='1647'> +1.5695881e-04 </wgt>
<wgt id='1648'> +1.5686403e-04 </wgt>
<wgt id='1649'> +1.5705014e-04 </wgt>
<wgt id='1650'> +1.5700283e-04 </wgt>
<wgt id='1651'> +1.5774020e-04 </wgt>
<wgt id='1652'> +1.5752772e-04 </wgt>
<wgt id='1653'> +1.5700811e-04 </wgt>
<wgt id='1654'> +1.5586327e-04 </wgt>
<wgt id='1655'> +1.5702530e-04 </wgt>
<wgt id='1656'> +1.5740392e-04 </wgt>
<wgt id='1657'> +1.5653447e-04 </wgt>
<wgt id='1658'> +1.5725259e-04 </wgt>
<wgt id='1659'> +1.5764183e-04 </wgt>
<wgt id='1660'> +1.5598546e-04 </wgt>
<wgt id='1661'> +1.5724478e-04 </wgt>
<wgt id='1662'> +1.5778903e-04 </wgt>
<wgt id='1663'> +1.5789217e-04 </wgt>
<wgt id='1664'> +1.5670934e-04 </wgt>
<wgt id='1665'> +1.5710816e-04 </wgt>
<wgt id='1666'> +1.5736665e-04 </wgt>
<wgt id='1667'> +1.5698939e-04 </wgt>
<wgt id='1668'> +1.5676272e-04 </wgt>
<wgt id='1669'> +1.5662026e-04 </wgt>
<wgt id='1670'> +1.5691095e-04 </wgt>
<wgt id='1671'> +1.5670124e-04 </wgt>
<wgt id='1672'> +1.5674649e-04 </wgt>
<wgt id='1673'> +1.5680449e-04 </wgt>
<wgt id='1674'> +1.5635272e-04 </wgt>
<wgt id='1675'> +1.5714082e-04 </wgt>
<wgt id='1676'> +1.5716634e-04 </wgt>
<wgt id='1677'> +1.5691543e-04 </wgt>
<wgt id='1678'> +1.5731768e-04 </wgt>
<wgt id='1679'> +1.5686726e-04 </wgt>
<wgt id='1680'> +1.5695337e-04 </wgt>
<wgt id='1681'> +1.5714737e-04 </wgt>
<wgt id='1682'> +1.5665134e-04 </wgt>
<wgt id='1683'> +1.5660581e-04 </wgt>
<wgt id='1684'> +1.5702050e-04 </wgt>
<wgt id='1685'> +1.5698321e-04 </wgt>
<wgt id='1686'> +1.5700005e-04 </wgt>
<wgt id='1687'> +1.5695125e-04 </wgt>
<wgt id='1688'> +1.5719282e-04 </wgt>
<wgt id='1689'> +1.5667328e-04 </wgt>
<wgt id='1690'> +1.5702872e-04 </wgt>
<wgt id='1691'> +1.5752345e-04 </wgt>
<wgt id='1692'> +1.5691419e-04 </wgt>
<wgt id='1693'> +1.5695195e-04 </wgt>
<wgt id='1694'> +1.5690179e-04 </wgt>
<wgt id='1695'> +1.5700266e-04 </wgt>
<wgt id='1696'> +1.5677452e-04 </wgt>
<wgt id='1697'> +1.5712999e-04 </wgt>
<wgt id='1698'> +1.5703579e-04 </wgt>
<wgt id='1699'> +1.5683932e-04 </wgt>
<wgt id='1700'> +1.5713764e-04 </wgt>
<wgt id='1701'> +1.5681789e-04 </wgt>
<wgt id='1702'> +1.5692327e-04 </wgt>
<wgt id='1703'> +1.5718504e-04 </wgt>
<wgt id='1704'> +1.5720731e-04 </wgt>
<wgt id='1705'> +1.5697254e-04 </wgt>
<wgt id='1706'> +1.5703381e-04 </wgt>
<wgt id='1707'> +1.5702720e-04 </wgt>
<wgt id='1708'> +1.5692443e-04 </wgt>
<wgt id='1709'> +1.5723787e-04 </wgt>
<wgt id='1710'> +1.5680645e-04 </wgt>
<wgt id='1711'> +1.5694717e-04 </wgt>
<wgt id='1712'> +1.5713962e-04 </wgt>
<wgt id='1713'> +1.5411878e-04 </wgt>
<wgt id='1714'> +1.6087021e-04 </wgt>
<wgt id='1715'> +0.0000000e+00 </wgt>
<wgt id='1716'> +0.0000000e+00 </wgt>
<wgt id='1717'> +0.0000000e+00 </wgt>
<wgt id='1718'> +0.0000000e+00 </wgt>
<wgt id='1719'> +0.0000000e+00 </wgt>
<wgt id='1720'> +0.0000000e+00 </wgt>
<wgt id='1721'> +0.0000000e+00 </wgt>
<wgt id='1722'> +0.0000000e+00 </wgt>
<wgt id='1723'> +0.0000000e+00 </wgt>
<wgt id='1724'> +0.0000000e+00 </wgt>
<wgt id='1725'> +0.0000000e+00 </wgt>
<wgt id='1726'> +0.0000000e+00 </wgt>
<wgt id='1727'> +0.0000000e+00 </wgt>
<wgt id='1728'> +0.0000000e+00 </wgt>
<wgt id='1729'> +0.0000000e+00 </wgt>
<wgt id='1730'> +0.0000000e+00 </wgt>
<wgt id='1731'> +0.0000000e+00 </wgt>
<wgt id='1732'> +0.0000000e+00 </wgt>
<wgt id='1733'> +0.0000000e+00 </wgt>
<wgt id='1734'> +0.0000000e+00 </wgt>
<wgt id='1735'> +0.0000000e+00 </wgt>
<wgt id='1736'> +0.0000000e+00 </wgt>
<wgt id='1737'> +0.0000000e+00 </wgt>
<wgt id='1738'> +0.0000000e+00 </wgt>
<wgt id='1739'> +0.0000000e+00 </wgt>
<wgt id='1740'> +0.0000000e+00 </wgt>
<wgt id='1741'> +0.0000000e+00 </wgt>
<wgt id='1742'> +0.0000000e+00 </wgt>
<wgt id='1743'> +0.0000000e+00 </wgt>
<wgt id='1744'> +0.0000000e+00 </wgt>
<wgt id='1745'> +0.0000000e+00 </wgt>
<wgt id='1746'> +0.0000000e+00 </wgt>
<wgt id='1747'> +0.0000000e+00 </wgt>
<wgt id='1748'> +0.0000000e+00 </wgt>
<wgt id='1749'> +0.0000000e+00 </wgt>
<wgt id='1750'> +0.0000000e+00 </wgt>
<wgt id='1751'> +0.0000000e+00 </wgt>
<wgt id='1752'> +0.0000000e+00 </wgt>
<wgt id='1753'> +0.0000000e+00 </wgt>
<wgt id='1754'> +0.0000000e+00 </wgt>
<wgt id='1755'> +0.0000000e+00 </wgt>
<wgt id='1756'> +0.0000000e+00 </wgt>
<wgt id='1757'> +0.0000000e+00 </wgt>
<wgt id='1758'> +0.0000000e+00 </wgt>
<wgt id='1759'> +0.0000000e+00 </wgt>
<wgt id='1760'> +0.0000000e+00 </wgt>
<wgt id='1761'> +0.0000000e+00 </wgt>
<wgt id='1762'> +0.0000000e+00 </wgt>
<wgt id='1763'> +0.0000000e+00 </wgt>
<wgt id='1764'> +0.0000000e+00 </wgt>
<wgt id='1765'> +0.0000000e+00 </wgt>
<wgt id='1766'> +0.0000000e+00 </wgt>
<wgt id='1767'> +0.0000000e+00 </wgt>
<wgt id='1768'> +0.0000000e+00 </wgt>
<wgt id='1769'> +0.0000000e+00 </wgt>
<wgt id='1770'> +0.0000000e+00 </wgt>
<wgt id='1771'> +0.0000000e+00 </wgt>
<wgt id='1772'> +0.0000000e+00 </wgt>
<wgt id='1773'> +0.0000000e+00 </wgt>
<wgt id='1774'> +0.0000000e+00 </wgt>
<wgt id='1775'> +0.0000000e+00 </wgt>
<wgt id='1776'> +0.0000000e+00 </wgt>
<wgt id='1777'> +0.0000000e+00 </wgt>
<wgt id='1778'> +0.0000000e+00 </wgt>
<wgt id='1779'> +0.0000000e+00 </wgt>
<wgt id='1780'> +0.0000000e+00 </wgt>
<wgt id='1781'> +0.0000000e+00 </wgt>
<wgt id='1782'> +0.0000000e+00 </wgt>
<wgt id='1783'> +0.0000000e+00 </wgt>
<wgt id='1784'> +0.0000000e+00 </wgt>
<wgt id='1785'> +0.0000000e+00 </wgt>
<wgt id='1786'> +0.0000000e+00 </wgt>
<wgt id='1787'> +0.0000000e+00 </wgt>
<wgt id='1788'> +0.0000000e+00 </wgt>
<wgt id='1789'> +0.0000000e+00 </wgt>
<wgt id='1790'> +0.0000000e+00 </wgt>
<wgt id='1791'> +0.0000000e+00 </wgt>
<wgt id='1792'> +0.0000000e+00 </wgt>
<wgt id='1793'> +0.0000000e+00 </wgt>
<wgt id='1794'> +0.0000000e+00 </wgt>
<wgt id='1795'> +0.0000000e+00 </wgt>
<wgt id='1796'> +0.0000000e+00 </wgt>
<wgt id='1797'> +0.0000000e+00 </wgt>
<wgt id='1798'> +0.0000000e+00 </wgt>
<wgt id='1799'> +0.0000000e+00 </wgt>
<wgt id='1800'> +0.0000000e+00 </wgt>
<wgt id='1801'> +0.0000000e+00 </wgt>
<wgt id='1802'> +0.0000000e+00 </wgt>
<wgt id='1803'> +0.0000000e+00 </wgt>
<wgt id='1804'> +0.0000000e+00 </wgt>
<wgt id='1805'> +0.0000000e+00 </wgt>
<wgt id='1806'> +0.0000000e+00 </wgt>
<wgt id='1807'> +0.0000000e+00 </wgt>
<wgt id='1808'> +0.0000000e+00 </wgt>
<wgt id='1809'> +0.0000000e+00 </wgt>
<wgt id='1810'> +0.0000000e+00 </wgt>
<wgt id='1811'> +0.0000000e+00 </wgt>
<wgt id='1812'> +0.0000000e+00 </wgt>
<wgt id='1813'> +0.0000000e+00 </wgt>
<wgt id='1814'> +0.0000000e+00 </wgt>
<wgt id='1815'> +0.0000000e+00 </wgt>
<wgt id='1816'> +0.0000000e+00 </wgt>
<wgt id='1817'> +0.0000000e+00 </wgt>
<wgt id='1818'> +0.0000000e+00 </wgt>
<wgt id='1819'> +0.0000000e+00 </wgt>
<wgt id='1820'> +0.0000000e+00 </wgt>
<wgt id='1821'> +0.0000000e+00 </wgt>
<wgt id='1822'> +0.0000000e+00 </wgt>
<wgt id='1823'> +0.0000000e+00 </wgt>
<wgt id='1824'> +0.0000000e+00 </wgt>
<wgt id='1825'> +0.0000000e+00 </wgt>
<wgt id='1826'> +0.0000000e+00 </wgt>
<wgt id='1827'> +0.0000000e+00 </wgt>
<wgt id='1828'> +0.0000000e+00 </wgt>
<wgt id='1829'> +0.0000000e+00 </wgt>
<wgt id='1830'> +0.0000000e+00 </wgt>
<wgt id='1831'> +0.0000000e+00 </wgt>
<wgt id='1832'> +0.0000000e+00 </wgt>
<wgt id='1833'> +0.0000000e+00 </wgt>
<wgt id='1834'> +0.0000000e+00 </wgt>
<wgt id='1835'> +0.0000000e+00 </wgt>
<wgt id='1836'> +0.0000000e+00 </wgt>
<wgt id='1837'> +0.0000000e+00 </wgt>
<wgt id='1838'> +0.0000000e+00 </wgt>
<wgt id='1839'> +0.0000000e+00 </wgt>
<wgt id='1840'> +0.0000000e+00 </wgt>
<wgt id='1841'> +0.0000000e+00 </wgt>
<wgt id='1842'> +0.0000000e+00 </wgt>
<wgt id='1843'> +0.0000000e+00 </wgt>
<wgt id='1844'> +0.0000000e+00 </wgt>
<wgt id='1845'> +0.0000000e+00 </wgt>
<wgt id='1846'> +0.0000000e+00 </wgt>
<wgt id='1847'> +0.0000000e+00 </wgt>
<wgt id='1848'> +0.0000000e+00 </wgt>
<wgt id='1849'> +0.0000000e+00 </wgt>
<wgt id='1850'> +0.0000000e+00 </wgt>
<wgt id='1851'> +0.0000000e+00 </wgt>
<wgt id='1852'> +0.0000000e+00 </wgt>
<wgt id='1853'> +0.0000000e+00 </wgt>
<wgt id='1854'> +0.0000000e+00 </wgt>
<wgt id='1855'> +0.0000000e+00 </wgt>
<wgt id='1856'> +0.0000000e+00 </wgt>
<wgt id='1857'> +0.0000000e+00 </wgt>
<wgt id='1858'> +0.0000000e+00 </wgt>
<wgt id='1859'> +0.0000000e+00 </wgt>
<wgt id='1860'> +0.0000000e+00 </wgt>
<wgt id='1861'> +0.0000000e+00 </wgt>
<wgt id='1862'> +0.0000000e+00 </wgt>
<wgt id='1863'> +0.0000000e+00 </wgt>
<wgt id='1864'> +0.0000000e+00 </wgt>
<wgt id='1865'> +0.0000000e+00 </wgt>
<wgt id='1866'> +0.0000000e+00 </wgt>
<wgt id='1867'> +0.0000000e+00 </wgt>
<wgt id='1868'> +0.0000000e+00 </wgt>
<wgt id='1869'> +0.0000000e+00 </wgt>
<wgt id='1870'> +0.0000000e+00 </wgt>
<wgt id='1871'> +0.0000000e+00 </wgt>
<wgt id='1872'> +0.0000000e+00 </wgt>
<wgt id='1873'> +0.0000000e+00 </wgt>
<wgt id='1874'> +0.0000000e+00 </wgt>
<wgt id='1875'> +0.0000000e+00 </wgt>
<wgt id='1876'> +0.0000000e+00 </wgt>
<wgt id='1877'> +0.0000000e+00 </wgt>
<wgt id='1878'> +0.0000000e+00 </wgt>
<wgt id='1879'> +0.0000000e+00 </wgt>
<wgt id='1880'> +0.0000000e+00 </wgt>
<wgt id='1881'> +0.0000000e+00 </wgt>
<wgt id='1882'> +0.0000000e+00 </wgt>
<wgt id='1883'> +0.0000000e+00 </wgt>
<wgt id='1884'> +0.0000000e+00 </wgt>
<wgt id='1885'> +0.0000000e+00 </wgt>
<wgt id='1886'> +0.0000000e+00 </wgt>
<wgt id='1887'> +0.0000000e+00 </wgt>
<wgt id='1888'> +0.0000000e+00 </wgt>
<wgt id='1889'> +0.0000000e+00 </wgt>
<wgt id='1890'> +0.0000000e+00 </wgt>
<wgt id='1891'> +0.0000000e+00 </wgt>
<wgt id='1892'> +0.0000000e+00 </wgt>
<wgt id='1893'> +0.0000000e+00 </wgt>
<wgt id='1894'> +0.0000000e+00 </wgt>
<wgt id='1895'> +0.0000000e+00 </wgt>
<wgt id='1896'> +0.0000000e+00 </wgt>
<wgt id='1897'> +0.0000000e+00 </wgt>
<wgt id='1898'> +0.0000000e+00 </wgt>
<wgt id='1899'> +0.0000000e+00 </wgt>
<wgt id='1900'> +0.0000000e+00 </wgt>
<wgt id='1901'> +0.0000000e+00 </wgt>
<wgt id='1902'> +0.0000000e+00 </wgt>
<wgt id='1903'> +0.0000000e+00 </wgt>
<wgt id='1904'> +0.0000000e+00 </wgt>
<wgt id='1905'> +0.0000000e+00 </wgt>
<wgt id='1906'> +0.0000000e+00 </wgt>
<wgt id='1907'> +0.0000000e+00 </wgt>
<wgt id='1908'> +0.0000000e+00 </wgt>
<wgt id='1909'> +0.0000000e+00 </wgt>
<wgt id='1910'> +0.0000000e+00 </wgt>
<wgt id='1911'> +0.0000000e+00 </wgt>
<wgt id='1912'> +0.0000000e+00 </wgt>
<wgt id='1913'> +0.0000000e+00 </wgt>
<wgt id='1914'> +0.0000000e+00 </wgt>
<wgt id='1915'> +0.0000000e+00 </wgt>
<wgt id='1916'> +0.0000000e+00 </wgt>
<wgt id='1917'> +0.0000000e+00 </wgt>
<wgt id='1918'> +0.0000000e+00 </wgt>
<wgt id='1919'> +0.0000000e+00 </wgt>
<wgt id='1920'> +0.0000000e+00 </wgt>
<wgt id='1921'> +0.0000000e+00 </wgt>
<wgt id='1922'> +0.0000000e+00 </wgt>
<wgt id='1923'> +0.0000000e+00 </wgt>
<wgt id='1924'> +0.0000000e+00 </wgt>
<wgt id='1925'> +0.0000000e+00 </wgt>
<wgt id='1926'> +0.0000000e+00 </wgt>
<wgt id='1927'> +0.0000000e+00 </wgt>
<wgt id='1928'> +0.0000000e+00 </wgt>
<wgt id='1929'> +0.0000000e+00 </wgt>
<wgt id='1930'> +0.0000000e+00 </wgt>
<wgt id='1931'> +0.0000000e+00 </wgt>
<wgt id='1932'> +0.0000000e+00 </wgt>
<wgt id='1933'> +0.0000000e+00 </wgt>
<wgt id='1934'> +0.0000000e+00 </wgt>
<wgt id='1935'> +0.0000000e+00 </wgt>
<wgt id='1936'> +0.0000000e+00 </wgt>
<wgt id='1937'> +0.0000000e+00 </wgt>
<wgt id='1938'> +0.0000000e+00 </wgt>
<wgt id='1939'> +0.0000000e+00 </wgt>
<wgt id='1940'> +0.0000000e+00 </wgt>
<wgt id='1941'> +0.0000000e+00 </wgt>
<wgt id='1942'> +0.0000000e+00 </wgt>
<wgt id='1943'> +0.0000000e+00 </wgt>
<wgt id='1944'> +0.0000000e+00 </wgt>
<wgt id='1945'> +0.0000000e+00 </wgt>
<wgt id='1946'> +0.0000000e+00 </wgt>
<wgt id='1947'> +0.0000000e+00 </wgt>
<wgt id='1948'> +0.0000000e+00 </wgt>
<wgt id='1949'> +0.0000000e+00 </wgt>
<wgt id='1950'> +0.0000000e+00 </wgt>
<wgt id='1951'> +0.0000000e+00 </wgt>
<wgt id='1952'> +0.0000000e+00 </wgt>
<wgt id='1953'> +0.0000000e+00 </wgt>
<wgt id='1954'> +0.0000000e+00 </wgt>
<wgt id='1955'> +0.0000000e+00 </wgt>
<wgt id='1956'> +0.0000000e+00 </wgt>
<wgt id='1957'> +0.0000000e+00 </wgt>
<wgt id='1958'> +0.0000000e+00 </wgt>
<wgt id='1959'> +0.0000000e+00 </wgt>
<wgt id='1960'> +0.0000000e+00 </wgt>
<wgt id='1961'> +0.0000000e+00 </wgt>
<wgt id='1962'> +0.0000000e+00 </wgt>
<wgt id='1963'> +0.0000000e+00 </wgt>
<wgt id='1964'> +0.0000000e+00 </wgt>
<wgt id='1965'> +0.0000000e+00 </wgt>
<wgt id='1966'> +0.0000000e+00 </wgt>
<wgt id='1967'> +0.0000000e+00 </wgt>
<wgt id='1968'> +0.0000000e+00 </wgt>
<wgt id='1969'> +0.0000000e+00 </wgt>
<wgt id='1970'> +0.0000000e+00 </wgt>
<wgt id='1971'> +0.0000000e+00 </wgt>
<wgt id='1972'> +0.0000000e+00 </wgt>
<wgt id='1973'> +0.0000000e+00 </wgt>
<wgt id='1974'> +0.0000000e+00 </wgt>
<wgt id='1975'> +0.0000000e+00 </wgt>
<wgt id='1976'> +0.0000000e+00 </wgt>
<wgt id='1977'> +0.0000000e+00 </wgt>
<wgt id='1978'> +0.0000000e+00 </wgt>
<wgt id='1979'> +0.0000000e+00 </wgt>
<wgt id='1980'> +0.0000000e+00 </wgt>
<wgt id='1981'> +0.0000000e+00 </wgt>
<wgt id='1982'> +0.0000000e+00 </wgt>
<wgt id='1983'> +0.0000000e+00 </wgt>
<wgt id='1984'> +0.0000000e+00 </wgt>
<wgt id='1985'> +0.0000000e+00 </wgt>
<wgt id='1986'> +0.0000000e+00 </wgt>
<wgt id='1987'> +0.0000000e+00 </wgt>
<wgt id='1988'> +0.0000000e+00 </wgt>
<wgt id='1989'> +0.0000000e+00 </wgt>
<wgt id='1990'> +0.0000000e+00 </wgt>
<wgt id='1991'> +0.0000000e+00 </wgt>
<wgt id='1992'> +0.0000000e+00 </wgt>
<wgt id='1993'> +0.0000000e+00 </wgt>
<wgt id='1994'> +0.0000000e+00 </wgt>
<wgt id='1995'> +0.0000000e+00 </wgt>
<wgt id='1996'> +0.0000000e+00 </wgt>
<wgt id='1997'> +0.0000000e+00 </wgt>
<wgt id='1998'> +0.0000000e+00 </wgt>
<wgt id='1999'> +0.0000000e+00 </wgt>
<wgt id='2000'> +0.0000000e+00 </wgt>
<wgt id='2001'> +0.0000000e+00 </wgt>
<wgt id='2002'> +0.0000000e+00 </wgt>
<wgt id='2003'> +0.0000000e+00 </wgt>
<wgt id='2004'> +0.0000000e+00 </wgt>
<wgt id='2005'> +0.0000000e+00 </wgt>
<wgt id='2006'> +0.0000000e+00 </wgt>
<wgt id='2007'> +0.0000000e+00 </wgt>
<wgt id='2008'> +0.0000000e+00 </wgt>
<wgt id='2009'> +0.0000000e+00 </wgt>
<wgt id='2010'> +0.0000000e+00 </wgt>
<wgt id='2011'> +0.0000000e+00 </wgt>
<wgt id='2012'> +0.0000000e+00 </wgt>
<wgt id='2013'> +0.0000000e+00 </wgt>
<wgt id='2014'> +0.0000000e+00 </wgt>
<wgt id='2015'> +0.0000000e+00 </wgt>
<wgt id='2016'> +0.0000000e+00 </wgt>
<wgt id='2017'> +0.0000000e+00 </wgt>
<wgt id='2018'> +0.0000000e+00 </wgt>
<wgt id='2019'> +0.0000000e+00 </wgt>
<wgt id='2020'> +0.0000000e+00 </wgt>
<wgt id='2021'> +0.0000000e+00 </wgt>
<wgt id='2022'> +0.0000000e+00 </wgt>
</rwgt>
</event>
<event>
14      2 +1.5732536e-04 5.42487200e+02 7.81860800e-03 1.12657200e-01
        2 -1    0    0  502    0 +0.0000000000e+00 +0.0000000000e+00 +1.2604989788e+03 1.2604989788e+03 2.5500000000e-03 0.0000e+00 1.0000e+00
       -5 -1    0    0    0  501 +0.0000000000e+00 +0.0000000000e+00 -5.9928889931e+02 5.9930732920e+02 4.7000000000e+00 0.0000e+00 1.0000e+00
        2  1    1    2  502    0 -2.8033347570e+01 -6.3451419098e+00 +6.1570755923e+02 6.1637807221e+02 2.5500000000e-03 0.0000e+00 1.0000e+00
       24  2    1    2    0    0 +1.5952482789e+02 -1.4968805927e+02 +1.3580409044e+02 2.7005875613e+02 8.1451181577e+01 0.0000e+00 0.0000e+00
       12  1    4    4    0    0 +4.2150127877e+01 -2.7839883373e+01 -3.8768789827e+00 5.0662832303e+01 0.0000000000e+00 0.0000e+00 -1.0000e+00
      -11  1    4    4    0    0 +1.1737470002e+02 -1.2184817590e+02 +1.3968096942e+02 2.1939592383e+02 5.1100000000e-04 0.0000e+00 1.0000e+00
       23  2    1    2    0    0 +2.4193026486e+02 -1.9142529101e+02 +1.8283363096e+02 3.6976713172e+02 9.0142664671e+01 0.0000e+00 0.0000e+00
        5  1    7    7  503    0 +4.5399873235e+01 -8.8317046735e+01 +5.5816642828e+01 1.1401156454e+02 4.7000000000e+00 0.0000e+00 -1.0000e+00
       -5  1    7    7    0  503 +1.9653039163e+02 -1.0310824428e+02 +1.2701698813e+02 2.5575556718e+02 4.7000000000e+00 0.0000e+00 1.0000e+00
       -6  2    1    2    0  501 -3.7342174519e+02 +3.4745849219e+02 -2.7313520114e+02 6.0360234794e+02 1.7193531564e+02 0.0000e+00 0.0000e+00
       -5  1   10   10    0  501 -7.4149239099e+01 +5.6145641058e+01 -1.1887984480e+02 1.5101307945e+02 4.7000000000e+00 0.0000e+00 1.0000e+00
      -24  2   10   10    0    0 -2.9927250609e+02 +2.9131285113e+02 -1.5425535634e+02 4.5258926849e+02 8.1333393229e+01 0.0000e+00 0.0000e+00
      -12  1   12   12    0    0 -2.9304329237e+02 +2.7425232957e+02 -1.2919538038e+02 4.2163984369e+02 0.0000000000e+00 0.0000e+00 1.0000e+00
       11  1   12   12    0    0 -6.2292137180e+00 +1.7060521568e+01 -2.5059975966e+01 3.0949424799e+01 5.1100000000e-04 0.0000e+00 -1.0000e+00
<mgrwt>
<rscale>  0 0.12486962e+03</rscale>
<asrwt>0</asrwt>
<pdfrwt beam="1">  1        2 0.18007128e+00 0.28742467e+02</pdfrwt>
<pdfrwt beam="2">  1       -5 0.85614642e-01 0.54248724e+03</pdfrwt>
<totfact> 0.10027725e+01</totfact>
</mgrwt>
<rwgt>
<wgt id='1001'> +1.5732536e-04 </wgt>
<wgt id='1002'> +1.3043884e-04 </wgt>
<wgt id='1003'> +1.3043859e-04 </wgt>
<wgt id='1004'> +1.3167894e-04 </wgt>
<wgt id='1005'> +1.2909818e-04 </wgt>
<wgt id='1006'> +1.5732536e-04 </wgt>
<wgt id='1007'> +1.3043884e-04 </wgt>
<wgt id='1008'> +1.3043859e-04 </wgt>
<wgt id='1009'> +1.3167894e-04 </wgt>
<wgt id='1010'> +1.2909818e-04 </wgt>
<wgt id='1011'> +1.5732536e-04 </wgt>
<wgt id='1012'> +1.3043884e-04 </wgt>
<wgt id='1013'> +1.3043859e-04 </wgt>
<wgt id='1014'> +1.3167894e-04 </wgt>
<wgt id='1015'> +1.2909818e-04 </wgt>
<wgt id='1016'> +1.5406515e-04 </wgt>
<wgt id='1017'> +1.2837048e-04 </wgt>
<wgt id='1018'> +1.2837012e-04 </wgt>
<wgt id='1019'> +1.3043859e-04 </wgt>
<wgt id='1020'> +1.2662554e-04 </wgt>
<wgt id='1021'> +1.5406515e-04 </wgt>
<wgt id='1022'> +1.2837048e-04 </wgt>
<wgt id='1023'> +1.2837012e-04 </wgt>
<wgt id='1024'> +1.3043859e-04 </wgt>
<wgt id='1025'> +1.2662554e-04 </wgt>
<wgt id='1026'> +1.5406515e-04 </wgt>
<wgt id='1027'> +1.2837048e-04 </wgt>
<wgt id='1028'> +1.2837012e-04 </wgt>
<wgt id='1029'> +1.3043859e-04 </wgt>
<wgt id='1030'> +1.2662554e-04 </wgt>
<wgt id='1031'> +1.5930697e-04 </wgt>
<wgt id='1032'> +1.3167904e-04 </wgt>
<wgt id='1033'> +1.3167894e-04 </wgt>
<wgt id='1034'> +1.3157410e-04 </wgt>
<wgt id='1035'> +1.3093018e-04 </wgt>
<wgt id='1036'> +1.5930697e-04 </wgt>
<wgt id='1037'> +1.3167904e-04 </wgt>
<wgt id='1038'> +1.3167894e-04 </wgt>
<wgt id='1039'> +1.3157410e-04 </wgt>
<wgt id='1040'> +1.3093018e-04 </wgt>
<wgt id='1041'> +1.5930697e-04 </wgt>
<wgt id='1042'> +1.3167904e-04 </wgt>
<wgt id='1043'> +1.3167894e-04 </wgt>
<wgt id='1044'> +1.3157410e-04 </wgt>
<wgt id='1045'> +1.3093018e-04 </wgt>
<wgt id='1046'> +1.5732536e-04 </wgt>
<wgt id='1047'> +1.5732536e-04 </wgt>
<wgt id='1048'> +0.0000000e+00 </wgt>
<wgt id='1049'> +0.0000000e+00 </wgt>
<wgt id='1050'> +0.0000000e+00 </wgt>
<wgt id='1051'> +0.0000000e+00 </wgt>
<wgt id='1052'> +0.0000000e+00 </wgt>
<wgt id='1053'> +0.0000000e+00 </wgt>
<wgt id='1054'> +0.0000000e+00 </wgt>
<wgt id='1055'> +0.0000000e+00 </wgt>
<wgt id='1056'> +0.0000000e+00 </wgt>
<wgt id='1057'> +0.0000000e+00 </wgt>
<wgt id='1058'> +0.0000000e+00 </wgt>
<wgt id='1059'> +0.0000000e+00 </wgt>
<wgt id='1060'> +0.0000000e+00 </wgt>
<wgt id='1061'> +0.0000000e+00 </wgt>
<wgt id='1062'> +0.0000000e+00 </wgt>
<wgt id='1063'> +0.0000000e+00 </wgt>
<wgt id='1064'> +0.0000000e+00 </wgt>
<wgt id='1065'> +0.0000000e+00 </wgt>
<wgt id='1066'> +0.0000000e+00 </wgt>
<wgt id='1067'> +0.0000000e+00 </wgt>
<wgt id='1068'> +0.0000000e+00 </wgt>
<wgt id='1069'> +0.0000000e+00 </wgt>
<wgt id='1070'> +0.0000000e+00 </wgt>
<wgt id='1071'> +0.0000000e+00 </wgt>
<wgt id='1072'> +0.0000000e+00 </wgt>
<wgt id='1073'> +0.0000000e+00 </wgt>
<wgt id='1074'> +0.0000000e+00 </wgt>
<wgt id='1075'> +0.0000000e+00 </wgt>
<wgt id='1076'> +0.0000000e+00 </wgt>
<wgt id='1077'> +0.0000000e+00 </wgt>
<wgt id='1078'> +0.0000000e+00 </wgt>
<wgt id='1079'> +0.0000000e+00 </wgt>
<wgt id='1080'> +0.0000000e+00 </wgt>
<wgt id='1081'> +0.0000000e+00 </wgt>
<wgt id='1082'> +0.0000000e+00 </wgt>
<wgt id='1083'> +0.0000000e+00 </wgt>
<wgt id='1084'> +0.0000000e+00 </wgt>
<wgt id='1085'> +0.0000000e+00 </wgt>
<wgt id='1086'> +0.0000000e+00 </wgt>
<wgt id='1087'> +0.0000000e+00 </wgt>
<wgt id='1088'> +0.0000000e+00 </wgt>
<wgt id='1089'> +0.0000000e+00 </wgt>
<wgt id='1090'> +0.0000000e+00 </wgt>
<wgt id='1091'> +0.0000000e+00 </wgt>
<wgt id='1092'> +0.0000000e+00 </wgt>
<wgt id='1093'> +0.0000000e+00 </wgt>
<wgt id='1094'> +0.0000000e+00 </wgt>
<wgt id='1095'> +0.0000000e+00 </wgt>
<wgt id='1096'> +0.0000000e+00 </wgt>
<wgt id='1097'> +0.0000000e+00 </wgt>
<wgt id='1098'> +0.0000000e+00 </wgt>
<wgt id='1099'> +0.0000000e+00 </wgt>
<wgt id='1100'> +0.0000000e+00 </wgt>
<wgt id='1101'> +0.0000000e+00 </wgt>
<wgt id='1102'> +0.0000000e+00 </wgt>
<wgt id='1103'> +0.0000000e+00 </wgt>
<wgt id='1104'> +0.0000000e+00 </wgt>
<wgt id='1105'> +0.0000000e+00 </wgt>
<wgt id='1106'> +0.0000000e+00 </wgt>
<wgt id='1107'> +0.0000000e+00 </wgt>
<wgt id='1108'> +0.0000000e+00 </wgt>
<wgt id='1109'> +0.0000000e+00 </wgt>
<wgt id='1110'> +0.0000000e+00 </wgt>
<wgt id='1111'> +0.0000000e+00 </wgt>
<wgt id='1112'> +0.0000000e+00 </wgt>
<wgt id='1113'> +0.0000000e+00 </wgt>
<wgt id='1114'> +0.0000000e+00 </wgt>
<wgt id='1115'> +0.0000000e+00 </wgt>
<wgt id='1116'> +0.0000000e+00 </wgt>
<wgt id='1117'> +0.0000000e+00 </wgt>
<wgt id='1118'> +0.0000000e+00 </wgt>
<wgt id='1119'> +0.0000000e+00 </wgt>
<wgt id='1120'> +0.0000000e+00 </wgt>
<wgt id='1121'> +0.0000000e+00 </wgt>
<wgt id='1122'> +0.0000000e+00 </wgt>
<wgt id='1123'> +0.0000000e+00 </wgt>
<wgt id='1124'> +0.0000000e+00 </wgt>
<wgt id='1125'> +0.0000000e+00 </wgt>
<wgt id='1126'> +0.0000000e+00 </wgt>
<wgt id='1127'> +0.0000000e+00 </wgt>
<wgt id='1128'> +0.0000000e+00 </wgt>
<wgt id='1129'> +0.0000000e+00 </wgt>
<wgt id='1130'> +0.0000000e+00 </wgt>
<wgt id='1131'> +0.0000000e+00 </wgt>
<wgt id='1132'> +0.0000000e+00 </wgt>
<wgt id='1133'> +0.0000000e+00 </wgt>
<wgt id='1134'> +0.0000000e+00 </wgt>
<wgt id='1135'> +0.0000000e+00 </wgt>
<wgt id='1136'> +0.0000000e+00 </wgt>
<wgt id='1137'> +0.0000000e+00 </wgt>
<wgt id='1138'> +0.0000000e+00 </wgt>
<wgt id='1139'> +0.0000000e+00 </wgt>
<wgt id='1140'> +0.0000000e+00 </wgt>
<wgt id='1141'> +0.0000000e+00 </wgt>
<wgt id='1142'> +0.0000000e+00 </wgt>
<wgt id='1143'> +0.0000000e+00 </wgt>
<wgt id='1144'> +0.0000000e+00 </wgt>
<wgt id='1145'> +0.0000000e+00 </wgt>
<wgt id='1146'> +0.0000000e+00 </wgt>
<wgt id='1147'> +0.0000000e+00 </wgt>
<wgt id='1148'> +0.0000000e+00 </wgt>
<wgt id='1149'> +0.0000000e+00 </wgt>
<wgt id='1150'> +0.0000000e+00 </wgt>
<wgt id='1151'> +0.0000000e+00 </wgt>
<wgt id='1152'> +0.0000000e+00 </wgt>
<wgt id='1153'> +0.0000000e+00 </wgt>
<wgt id='1154'> +0.0000000e+00 </wgt>
<wgt id='1155'> +0.0000000e+00 </wgt>
<wgt id='1156'> +0.0000000e+00 </wgt>
<wgt id='1157'> +0.0000000e+00 </wgt>
<wgt id='1158'> +0.0000000e+00 </wgt>
<wgt id='1159'> +0.0000000e+00 </wgt>
<wgt id='1160'> +0.0000000e+00 </wgt>
<wgt id='1161'> +0.0000000e+00 </wgt>
<wgt id='1162'> +0.0000000e+00 </wgt>
<wgt id='1163'> +0.0000000e+00 </wgt>
<wgt id='1164'> +0.0000000e+00 </wgt>
<wgt id='1165'> +0.0000000e+00 </wgt>
<wgt id='1166'> +0.0000000e+00 </wgt>
<wgt id='1167'> +0.0000000e+00 </wgt>
<wgt id='1168'> +0.0000000e+00 </wgt>
<wgt id='1169'> +0.0000000e+00 </wgt>
<wgt id='1170'> +0.0000000e+00 </wgt>
<wgt id='1171'> +0.0000000e+00 </wgt>
<wgt id='1172'> +0.0000000e+00 </wgt>
<wgt id='1173'> +0.0000000e+00 </wgt>
<wgt id='1174'> +0.0000000e+00 </wgt>
<wgt id='1175'> +0.0000000e+00 </wgt>
<wgt id='1176'> +0.0000000e+00 </wgt>
<wgt id='1177'> +0.0000000e+00 </wgt>
<wgt id='1178'> +0.0000000e+00 </wgt>
<wgt id='1179'> +0.0000000e+00 </wgt>
<wgt id='1180'> +0.0000000e+00 </wgt>
<wgt id='1181'> +0.0000000e+00 </wgt>
<wgt id='1182'> +0.0000000e+00 </wgt>
<wgt id='1183'> +0.0000000e+00 </wgt>
<wgt id='1184'> +0.0000000e+00 </wgt>
<wgt id='1185'> +0.0000000e+00 </wgt>
<wgt id='1186'> +0.0000000e+00 </wgt>
<wgt id='1187'> +0.0000000e+00 </wgt>
<wgt id='1188'> +0.0000000e+00 </wgt>
<wgt id='1189'> +0.0000000e+00 </wgt>
<wgt id='1190'> +0.0000000e+00 </wgt>
<wgt id='1191'> +0.0000000e+00 </wgt>
<wgt id='1192'> +0.0000000e+00 </wgt>
<wgt id='1193'> +0.0000000e+00 </wgt>
<wgt id='1194'> +0.0000000e+00 </wgt>
<wgt id='1195'> +0.0000000e+00 </wgt>
<wgt id='1196'> +0.0000000e+00 </wgt>
<wgt id='1197'> +0.0000000e+00 </wgt>
<wgt id='1198'> +0.0000000e+00 </wgt>
<wgt id='1199'> +0.0000000e+00 </wgt>
<wgt id='1200'> +0.0000000e+00 </wgt>
<wgt id='1201'> +0.0000000e+00 </wgt>
<wgt id='1202'> +0.0000000e+00 </wgt>
<wgt id='1203'> +0.0000000e+00 </wgt>
<wgt id='1204'> +0.0000000e+00 </wgt>
<wgt id='1205'> +0.0000000e+00 </wgt>
<wgt id='1206'> +0.0000000e+00 </wgt>
<wgt id='1207'> +0.0000000e+00 </wgt>
<wgt id='1208'> +0.0000000e+00 </wgt>
<wgt id='1209'> +0.0000000e+00 </wgt>
<wgt id='1210'> +0.0000000e+00 </wgt>
<wgt id='1211'> +0.0000000e+00 </wgt>
<wgt id='1212'> +0.0000000e+00 </wgt>
<wgt id='1213'> +0.0000000e+00 </wgt>
<wgt id='1214'> +0.0000000e+00 </wgt>
<wgt id='1215'> +0.0000000e+00 </wgt>
<wgt id='1216'> +0.0000000e+00 </wgt>
<wgt id='1217'> +0.0000000e+00 </wgt>
<wgt id='1218'> +0.0000000e+00 </wgt>
<wgt id='1219'> +0.0000000e+00 </wgt>
<wgt id='1220'> +0.0000000e+00 </wgt>
<wgt id='1221'> +0.0000000e+00 </wgt>
<wgt id='1222'> +0.0000000e+00 </wgt>
<wgt id='1223'> +0.0000000e+00 </wgt>
<wgt id='1224'> +0.0000000e+00 </wgt>
<wgt id='1225'> +0.0000000e+00 </wgt>
<wgt id='1226'> +0.0000000e+00 </wgt>
<wgt id='1227'> +0.0000000e+00 </wgt>
<wgt id='1228'> +0.0000000e+00 </wgt>
<wgt id='1229'> +0.0000000e+00 </wgt>
<wgt id='1230'> +0.0000000e+00 </wgt>
<wgt id='1231'> +0.0000000e+00 </wgt>
<wgt id='1232'> +0.0000000e+00 </wgt>
<wgt id='1233'> +0.0000000e+00 </wgt>
<wgt id='1234'> +0.0000000e+00 </wgt>
<wgt id='1235'> +0.0000000e+00 </wgt>
<wgt id='1236'> +0.0000000e+00 </wgt>
<wgt id='1237'> +0.0000000e+00 </wgt>
<wgt id='1238'> +0.0000000e+00 </wgt>
<wgt id='1239'> +0.0000000e+00 </wgt>
<wgt id='1240'> +0.0000000e+00 </wgt>
<wgt id='1241'> +0.0000000e+00 </wgt>
<wgt id='1242'> +0.0000000e+00 </wgt>
<wgt id='1243'> +0.0000000e+00 </wgt>
<wgt id='1244'> +0.0000000e+00 </wgt>
<wgt id='1245'> +0.0000000e+00 </wgt>
<wgt id='1246'> +0.0000000e+00 </wgt>
<wgt id='1247'> +0.0000000e+00 </wgt>
<wgt id='1248'> +0.0000000e+00 </wgt>
<wgt id='1249'> +0.0000000e+00 </wgt>
<wgt id='1250'> +0.0000000e+00 </wgt>
<wgt id='1251'> +0.0000000e+00 </wgt>
<wgt id='1252'> +0.0000000e+00 </wgt>
<wgt id='1253'> +0.0000000e+00 </wgt>
<wgt id='1254'> +0.0000000e+00 </wgt>
<wgt id='1255'> +0.0000000e+00 </wgt>
<wgt id='1256'> +0.0000000e+00 </wgt>
<wgt id='1257'> +0.0000000e+00 </wgt>
<wgt id='1258'> +0.0000000e+00 </wgt>
<wgt id='1259'> +0.0000000e+00 </wgt>
<wgt id='1260'> +0.0000000e+00 </wgt>
<wgt id='1261'> +0.0000000e+00 </wgt>
<wgt id='1262'> +0.0000000e+00 </wgt>
<wgt id='1263'> +0.0000000e+00 </wgt>
<wgt id='1264'> +0.0000000e+00 </wgt>
<wgt id='1265'> +0.0000000e+00 </wgt>
<wgt id='1266'> +0.0000000e+00 </wgt>
<wgt id='1267'> +0.0000000e+00 </wgt>
<wgt id='1268'> +0.0000000e+00 </wgt>
<wgt id='1269'> +0.0000000e+00 </wgt>
<wgt id='1270'> +0.0000000e+00 </wgt>
<wgt id='1271'> +0.0000000e+00 </wgt>
<wgt id='1272'> +0.0000000e+00 </wgt>
<wgt id='1273'> +0.0000000e+00 </wgt>
<wgt id='1274'> +0.0000000e+00 </wgt>
<wgt id='1275'> +0.0000000e+00 </wgt>
<wgt id='1276'> +0.0000000e+00 </wgt>
<wgt id='1277'> +0.0000000e+00 </wgt>
<wgt id='1278'> +0.0000000e+00 </wgt>
<wgt id='1279'> +0.0000000e+00 </wgt>
<wgt id='1280'> +0.0000000e+00 </wgt>
<wgt id='1281'> +0.0000000e+00 </wgt>
<wgt id='1282'> +0.0000000e+00 </wgt>
<wgt id='1283'> +0.0000000e+00 </wgt>
<wgt id='1284'> +0.0000000e+00 </wgt>
<wgt id='1285'> +0.0000000e+00 </wgt>
<wgt id='1286'> +0.0000000e+00 </wgt>
<wgt id='1287'> +0.0000000e+00 </wgt>
<wgt id='1288'> +0.0000000e+00 </wgt>
<wgt id='1289'> +0.0000000e+00 </wgt>
<wgt id='1290'> +0.0000000e+00 </wgt>
<wgt id='1291'> +0.0000000e+00 </wgt>
<wgt id='1292'> +0.0000000e+00 </wgt>
<wgt id='1293'> +0.0000000e+00 </wgt>
<wgt id='1294'> +0.0000000e+00 </wgt>
<wgt id='1295'> +0.0000000e+00 </wgt>
<wgt id='1296'> +0.0000000e+00 </wgt>
<wgt id='1297'> +0.0000000e+00 </wgt>
<wgt id='1298'> +0.0000000e+00 </wgt>
<wgt id='1299'> +0.0000000e+00 </wgt>
<wgt id='1300'> +0.0000000e+00 </wgt>
<wgt id='1301'> +0.0000000e+00 </wgt>
<wgt id='1302'> +0.0000000e+00 </wgt>
<wgt id='1303'> +0.0000000e+00 </wgt>
<wgt id='1304'> +0.0000000e+00 </wgt>
<wgt id='1305'> +0.0000000e+00 </wgt>
<wgt id='1306'> +0.0000000e+00 </wgt>
<wgt id='1307'> +0.0000000e+00 </wgt>
<wgt id='1308'> +0.0000000e+00 </wgt>
<wgt id='1309'> +0.0000000e+00 </wgt>
<wgt id='1310'> +0.0000000e+00 </wgt>
<wgt id='1311'> +0.0000000e+00 </wgt>
<wgt id='1312'> +0.0000000e+00 </wgt>
<wgt id='1313'> +0.0000000e+00 </wgt>
<wgt id='1314'> +0.0000000e+00 </wgt>
<wgt id='1315'> +0.0000000e+00 </wgt>
<wgt id='1316'> +0.0000000e+00 </wgt>
<wgt id='1317'> +0.0000000e+00 </wgt>
<wgt id='1318'> +0.0000000e+00 </wgt>
<wgt id='1319'> +0.0000000e+00 </wgt>
<wgt id='1320'> +0.0000000e+00 </wgt>
<wgt id='1321'> +0.0000000e+00 </wgt>
<wgt id='1322'> +0.0000000e+00 </wgt>
<wgt id='1323'> +0.0000000e+00 </wgt>
<wgt id='1324'> +0.0000000e+00 </wgt>
<wgt id='1325'> +0.0000000e+00 </wgt>
<wgt id='1326'> +0.0000000e+00 </wgt>
<wgt id='1327'> +0.0000000e+00 </wgt>
<wgt id='1328'> +0.0000000e+00 </wgt>
<wgt id='1329'> +0.0000000e+00 </wgt>
<wgt id='1330'> +0.0000000e+00 </wgt>
<wgt id='1331'> +0.0000000e+00 </wgt>
<wgt id='1332'> +0.0000000e+00 </wgt>
<wgt id='1333'> +0.0000000e+00 </wgt>
<wgt id='1334'> +0.0000000e+00 </wgt>
<wgt id='1335'> +0.0000000e+00 </wgt>
<wgt id='1336'> +0.0000000e+00 </wgt>
<wgt id='1337'> +0.0000000e+00 </wgt>
<wgt id='1338'> +0.0000000e+00 </wgt>
<wgt id='1339'> +0.0000000e+00 </wgt>
<wgt id='1340'> +0.0000000e+00 </wgt>
<wgt id='1341'> +0.0000000e+00 </wgt>
<wgt id='1342'> +0.0000000e+00 </wgt>
<wgt id='1343'> +0.0000000e+00 </wgt>
<wgt id='1344'> +0.0000000e+00 </wgt>
<wgt id='1345'> +0.0000000e+00 </wgt>
<wgt id='1346'> +0.0000000e+00 </wgt>
<wgt id='1347'> +0.0000000e+00 </wgt>
<wgt id='1348'> +0.0000000e+00 </wgt>
<wgt id='1349'> +0.0000000e+00 </wgt>
<wgt id='1350'> +0.0000000e+00 </wgt>
<wgt id='1351'> +0.0000000e+00 </wgt>
<wgt id='1352'> +0.0000000e+00 </wgt>
<wgt id='1353'> +0.0000000e+00 </wgt>
<wgt id='1354'> +0.0000000e+00 </wgt>
<wgt id='1355'> +0.0000000e+00 </wgt>
<wgt id='1356'> +0.0000000e+00 </wgt>
<wgt id='1357'> +0.0000000e+00 </wgt>
<wgt id='1358'> +0.0000000e+00 </wgt>
<wgt id='1359'> +0.0000000e+00 </wgt>
<wgt id='1360'> +0.0000000e+00 </wgt>
<wgt id='1361'> +0.0000000e+00 </wgt>
<wgt id='1362'> +0.0000000e+00 </wgt>
<wgt id='1363'> +0.0000000e+00 </wgt>
<wgt id='1364'> +0.0000000e+00 </wgt>
<wgt id='1365'> +0.0000000e+00 </wgt>
<wgt id='1366'> +0.0000000e+00 </wgt>
<wgt id='1367'> +0.0000000e+00 </wgt>
<wgt id='1368'> +0.0000000e+00 </wgt>
<wgt id='1369'> +0.0000000e+00 </wgt>
<wgt id='1370'> +0.0000000e+00 </wgt>
<wgt id='1371'> +0.0000000e+00 </wgt>
<wgt id='1372'> +0.0000000e+00 </wgt>
<wgt id='1373'> +0.0000000e+00 </wgt>
<wgt id='1374'> +0.0000000e+00 </wgt>
<wgt id='1375'> +0.0000000e+00 </wgt>
<wgt id='1376'> +0.0000000e+00 </wgt>
<wgt id='1377'> +0.0000000e+00 </wgt>
<wgt id='1378'> +0.0000000e+00 </wgt>
<wgt id='1379'> +0.0000000e+00 </wgt>
<wgt id='1380'> +0.0000000e+00 </wgt>
<wgt id='1381'> +0.0000000e+00 </wgt>
<wgt id='1382'> +0.0000000e+00 </wgt>
<wgt id='1383'> +0.0000000e+00 </wgt>
<wgt id='1384'> +0.0000000e+00 </wgt>
<wgt id='1385'> +0.0000000e+00 </wgt>
<wgt id='1386'> +0.0000000e+00 </wgt>
<wgt id='1387'> +0.0000000e+00 </wgt>
<wgt id='1388'> +0.0000000e+00 </wgt>
<wgt id='1389'> +0.0000000e+00 </wgt>
<wgt id='1390'> +0.0000000e+00 </wgt>
<wgt id='1391'> +0.0000000e+00 </wgt>
<wgt id='1392'> +0.0000000e+00 </wgt>
<wgt id='1393'> +0.0000000e+00 </wgt>
<wgt id='1394'> +0.0000000e+00 </wgt>
<wgt id='1395'> +0.0000000e+00 </wgt>
<wgt id='1396'> +0.0000000e+00 </wgt>
<wgt id='1397'> +0.0000000e+00 </wgt>
<wgt id='1398'> +0.0000000e+00 </wgt>
<wgt id='1399'> +0.0000000e+00 </wgt>
<wgt id='1400'> +0.0000000e+00 </wgt>
<wgt id='1401'> +0.0000000e+00 </wgt>
<wgt id='1402'> +0.0000000e+00 </wgt>
<wgt id='1403'> +0.0000000e+00 </wgt>
<wgt id='1404'> +0.0000000e+00 </wgt>
<wgt id='1405'> +0.0000000e+00 </wgt>
<wgt id='1406'> +0.0000000e+00 </wgt>
<wgt id='1407'> +0.0000000e+00 </wgt>
<wgt id='1408'> +0.0000000e+00 </wgt>
<wgt id='1409'> +0.0000000e+00 </wgt>
<wgt id='1410'> +0.0000000e+00 </wgt>
<wgt id='1411'> +0.0000000e+00 </wgt>
<wgt id='1412'> +0.0000000e+00 </wgt>
<wgt id='1413'> +0.0000000e+00 </wgt>
<wgt id='1414'> +0.0000000e+00 </wgt>
<wgt id='1415'> +0.0000000e+00 </wgt>
<wgt id='1416'> +0.0000000e+00 </wgt>
<wgt id='1417'> +0.0000000e+00 </wgt>
<wgt id='1418'> +0.0000000e+00 </wgt>
<wgt id='1419'> +0.0000000e+00 </wgt>
<wgt id='1420'> +0.0000000e+00 </wgt>
<wgt id='1421'> +0.0000000e+00 </wgt>
<wgt id='1422'> +0.0000000e+00 </wgt>
<wgt id='1423'> +0.0000000e+00 </wgt>
<wgt id='1424'> +0.0000000e+00 </wgt>
<wgt id='1425'> +0.0000000e+00 </wgt>
<wgt id='1426'> +0.0000000e+00 </wgt>
<wgt id='1427'> +0.0000000e+00 </wgt>
<wgt id='1428'> +0.0000000e+00 </wgt>
<wgt id='1429'> +0.0000000e+00 </wgt>
<wgt id='1430'> +0.0000000e+00 </wgt>
<wgt id='1431'> +0.0000000e+00 </wgt>
<wgt id='1432'> +0.0000000e+00 </wgt>
<wgt id='1433'> +0.0000000e+00 </wgt>
<wgt id='1434'> +0.0000000e+00 </wgt>
<wgt id='1435'> +0.0000000e+00 </wgt>
<wgt id='1436'> +0.0000000e+00 </wgt>
<wgt id='1437'> +0.0000000e+00 </wgt>
<wgt id='1438'> +0.0000000e+00 </wgt>
<wgt id='1439'> +0.0000000e+00 </wgt>
<wgt id='1440'> +0.0000000e+00 </wgt>
<wgt id='1441'> +0.0000000e+00 </wgt>
<wgt id='1442'> +0.0000000e+00 </wgt>
<wgt id='1443'> +0.0000000e+00 </wgt>
<wgt id='1444'> +0.0000000e+00 </wgt>
<wgt id='1445'> +0.0000000e+00 </wgt>
<wgt id='1446'> +0.0000000e+00 </wgt>
<wgt id='1447'> +0.0000000e+00 </wgt>
<wgt id='1448'> +0.0000000e+00 </wgt>
<wgt id='1449'> +0.0000000e+00 </wgt>
<wgt id='1450'> +0.0000000e+00 </wgt>
<wgt id='1451'> +0.0000000e+00 </wgt>
<wgt id='1452'> +0.0000000e+00 </wgt>
<wgt id='1453'> +0.0000000e+00 </wgt>
<wgt id='1454'> +0.0000000e+00 </wgt>
<wgt id='1455'> +0.0000000e+00 </wgt>
<wgt id='1456'> +0.0000000e+00 </wgt>
<wgt id='1457'> +0.0000000e+00 </wgt>
<wgt id='1458'> +0.0000000e+00 </wgt>
<wgt id='1459'> +0.0000000e+00 </wgt>
<wgt id='1460'> +0.0000000e+00 </wgt>
<wgt id='1461'> +0.0000000e+00 </wgt>
<wgt id='1462'> +0.0000000e+00 </wgt>
<wgt id='1463'> +0.0000000e+00 </wgt>
<wgt id='1464'> +0.0000000e+00 </wgt>
<wgt id='1465'> +0.0000000e+00 </wgt>
<wgt id='1466'> +0.0000000e+00 </wgt>
<wgt id='1467'> +0.0000000e+00 </wgt>
<wgt id='1468'> +0.0000000e+00 </wgt>
<wgt id='1469'> +0.0000000e+00 </wgt>
<wgt id='1470'> +0.0000000e+00 </wgt>
<wgt id='1471'> +0.0000000e+00 </wgt>
<wgt id='1472'> +0.0000000e+00 </wgt>
<wgt id='1473'> +0.0000000e+00 </wgt>
<wgt id='1474'> +0.0000000e+00 </wgt>
<wgt id='1475'> +0.0000000e+00 </wgt>
<wgt id='1476'> +0.0000000e+00 </wgt>
<wgt id='1477'> +0.0000000e+00 </wgt>
<wgt id='1478'> +0.0000000e+00 </wgt>
<wgt id='1479'> +0.0000000e+00 </wgt>
<wgt id='1480'> +0.0000000e+00 </wgt>
<wgt id='1481'> +0.0000000e+00 </wgt>
<wgt id='1482'> +0.0000000e+00 </wgt>
<wgt id='1483'> +0.0000000e+00 </wgt>
<wgt id='1484'> +0.0000000e+00 </wgt>
<wgt id='1485'> +0.0000000e+00 </wgt>
<wgt id='1486'> +0.0000000e+00 </wgt>
<wgt id='1487'> +0.0000000e+00 </wgt>
<wgt id='1488'> +0.0000000e+00 </wgt>
<wgt id='1489'> +0.0000000e+00 </wgt>
<wgt id='1490'> +0.0000000e+00 </wgt>
<wgt id='1491'> +0.0000000e+00 </wgt>
<wgt id='1492'> +0.0000000e+00 </wgt>
<wgt id='1493'> +0.0000000e+00 </wgt>
<wgt id='1494'> +0.0000000e+00 </wgt>
<wgt id='1495'> +0.0000000e+00 </wgt>
<wgt id='1496'> +0.0000000e+00 </wgt>
<wgt id='1497'> +0.0000000e+00 </wgt>
<wgt id='1498'> +0.0000000e+00 </wgt>
<wgt id='1499'> +0.0000000e+00 </wgt>
<wgt id='1500'> +0.0000000e+00 </wgt>
<wgt id='1501'> +0.0000000e+00 </wgt>
<wgt id='1502'> +0.0000000e+00 </wgt>
<wgt id='1503'> +0.0000000e+00 </wgt>
<wgt id='1504'> +0.0000000e+00 </wgt>
<wgt id='1505'> +0.0000000e+00 </wgt>
<wgt id='1506'> +0.0000000e+00 </wgt>
<wgt id='1507'> +0.0000000e+00 </wgt>
<wgt id='1508'> +0.0000000e+00 </wgt>
<wgt id='1509'> +0.0000000e+00 </wgt>
<wgt id='1510'> +0.0000000e+00 </wgt>
<wgt id='1511'> +0.0000000e+00 </wgt>
<wgt id='1512'> +0.0000000e+00 </wgt>
<wgt id='1513'> +0.0000000e+00 </wgt>
<wgt id='1514'> +0.0000000e+00 </wgt>
<wgt id='1515'> +0.0000000e+00 </wgt>
<wgt id='1516'> +0.0000000e+00 </wgt>
<wgt id='1517'> +0.0000000e+00 </wgt>
<wgt id='1518'> +0.0000000e+00 </wgt>
<wgt id='1519'> +0.0000000e+00 </wgt>
<wgt id='1520'> +0.0000000e+00 </wgt>
<wgt id='1521'> +0.0000000e+00 </wgt>
<wgt id='1522'> +0.0000000e+00 </wgt>
<wgt id='1523'> +0.0000000e+00 </wgt>
<wgt id='1524'> +0.0000000e+00 </wgt>
<wgt id='1525'> +0.0000000e+00 </wgt>
<wgt id='1526'> +0.0000000e+00 </wgt>
<wgt id='1527'> +0.0000000e+00 </wgt>
<wgt id='1528'> +0.0000000e+00 </wgt>
<wgt id='1529'> +0.0000000e+00 </wgt>
<wgt id='1530'> +0.0000000e+00 </wgt>
<wgt id='1531'> +0.0000000e+00 </wgt>
<wgt id='1532'> +0.0000000e+00 </wgt>
<wgt id='1533'> +0.0000000e+00 </wgt>
<wgt id='1534'> +0.0000000e+00 </wgt>
<wgt id='1535'> +0.0000000e+00 </wgt>
<wgt id='1536'> +0.0000000e+00 </wgt>
<wgt id='1537'> +0.0000000e+00 </wgt>
<wgt id='1538'> +0.0000000e+00 </wgt>
<wgt id='1539'> +0.0000000e+00 </wgt>
<wgt id='1540'> +0.0000000e+00 </wgt>
<wgt id='1541'> +0.0000000e+00 </wgt>
<wgt id='1542'> +0.0000000e+00 </wgt>
<wgt id='1543'> +0.0000000e+00 </wgt>
<wgt id='1544'> +0.0000000e+00 </wgt>
<wgt id='1545'> +0.0000000e+00 </wgt>
<wgt id='1546'> +0.0000000e+00 </wgt>
<wgt id='1547'> +0.0000000e+00 </wgt>
<wgt id='1548'> +0.0000000e+00 </wgt>
<wgt id='1549'> +0.0000000e+00 </wgt>
<wgt id='1550'> +0.0000000e+00 </wgt>
<wgt id='1551'> +0.0000000e+00 </wgt>
<wgt id='1552'> +0.0000000e+00 </wgt>
<wgt id='1553'> +0.0000000e+00 </wgt>
<wgt id='1554'> +0.0000000e+00 </wgt>
<wgt id='1555'> +0.0000000e+00 </wgt>
<wgt id='1556'> +0.0000000e+00 </wgt>
<wgt id='1557'> +0.0000000e+00 </wgt>
<wgt id='1558'> +0.0000000e+00 </wgt>
<wgt id='1559'> +0.0000000e+00 </wgt>
<wgt id='1560'> +0.0000000e+00 </wgt>
<wgt id='1561'> +0.0000000e+00 </wgt>
<wgt id='1562'> +0.0000000e+00 </wgt>
<wgt id='1563'> +0.0000000e+00 </wgt>
<wgt id='1564'> +0.0000000e+00 </wgt>
<wgt id='1565'> +0.0000000e+00 </wgt>
<wgt id='1566'> +0.0000000e+00 </wgt>
<wgt id='1567'> +0.0000000e+00 </wgt>
<wgt id='1568'> +0.0000000e+00 </wgt>
<wgt id='1569'> +0.0000000e+00 </wgt>
<wgt id='1570'> +0.0000000e+00 </wgt>
<wgt id='1571'> +0.0000000e+00 </wgt>
<wgt id='1572'> +0.0000000e+00 </wgt>
<wgt id='1573'> +0.0000000e+00 </wgt>
<wgt id='1574'> +0.0000000e+00 </wgt>
<wgt id='1575'> +0.0000000e+00 </wgt>
<wgt id='1576'> +0.0000000e+00 </wgt>
<wgt id='1577'> +0.0000000e+00 </wgt>
<wgt id='1578'> +0.0000000e+00 </wgt>
<wgt id='1579'> +0.0000000e+00 </wgt>
<wgt id='1580'> +0.0000000e+00 </wgt>
<wgt id='1581'> +0.0000000e+00 </wgt>
<wgt id='1582'> +0.0000000e+00 </wgt>
<wgt id='1583'> +0.0000000e+00 </wgt>
<wgt id='1584'> +0.0000000e+00 </wgt>
<wgt id='1585'> +0.0000000e+00 </wgt>
<wgt id='1586'> +0.0000000e+00 </wgt>
<wgt id='1587'> +0.0000000e+00 </wgt>
<wgt id='1588'> +0.0000000e+00 </wgt>
<wgt id='1589'> +0.0000000e+00 </wgt>
<wgt id='1590'> +0.0000000e+00 </wgt>
<wgt id='1591'> +0.0000000e+00 </wgt>
<wgt id='1592'> +0.0000000e+00 </wgt>
<wgt id='1593'> +0.0000000e+00 </wgt>
<wgt id='1594'> +0.0000000e+00 </wgt>
<wgt id='1595'> +0.0000000e+00 </wgt>
<wgt id='1596'> +0.0000000e+00 </wgt>
<wgt id='1597'> +0.0000000e+00 </wgt>
<wgt id='1598'> +0.0000000e+00 </wgt>
<wgt id='1599'> +0.0000000e+00 </wgt>
<wgt id='1600'> +0.0000000e+00 </wgt>
<wgt id='1601'> +0.0000000e+00 </wgt>
<wgt id='1602'> +0.0000000e+00 </wgt>
<wgt id='1603'> +0.0000000e+00 </wgt>
<wgt id='1604'> +0.0000000e+00 </wgt>
<wgt id='1605'> +0.0000000e+00 </wgt>
<wgt id='1606'> +0.0000000e+00 </wgt>
<wgt id='1607'> +0.0000000e+00 </wgt>
<wgt id='1608'> +0.0000000e+00 </wgt>
<wgt id='1609'> +0.0000000e+00 </wgt>
<wgt id='1610'> +0.0000000e+00 </wgt>
<wgt id='1611'> +0.0000000e+00 </wgt>
<wgt id='1612'> +1.5749416e-04 </wgt>
<wgt id='1613'> +1.5748472e-04 </wgt>
<wgt id='1614'> +1.5749247e-04 </wgt>
<wgt id='1615'> +1.5736623e-04 </wgt>
<wgt id='1616'> +1.5760093e-04 </wgt>
<wgt id='1617'> +1.5759728e-04 </wgt>
<wgt id='1618'> +1.5764480e-04 </wgt>
<wgt id='1619'> +1.5759205e-04 </wgt>
<wgt id='1620'> +1.5758597e-04 </wgt>
<wgt id='1621'> +1.5754440e-04 </wgt>
<wgt id='1622'> +1.5756919e-04 </wgt>
<wgt id='1623'> +1.5701378e-04 </wgt>
<wgt id='1624'> +1.5693218e-04 </wgt>
<wgt id='1625'> +1.5675142e-04 </wgt>
<wgt id='1626'> +1.5734914e-04 </wgt>
<wgt id='1627'> +1.5697581e-04 </wgt>
<wgt id='1628'> +1.5765927e-04 </wgt>
<wgt id='1629'> +1.5757206e-04 </wgt>
<wgt id='1630'> +1.5690784e-04 </wgt>
<wgt id='1631'> +1.5776287e-04 </wgt>
<wgt id='1632'> +1.5698606e-04 </wgt>
<wgt id='1633'> +1.5790369e-04 </wgt>
<wgt id='1634'> +1.5710601e-04 </wgt>
<wgt id='1635'> +1.5719615e-04 </wgt>
<wgt id='1636'> +1.5699303e-04 </wgt>
<wgt id='1637'> +1.5705810e-04 </wgt>
<wgt id='1638'> +1.5714829e-04 </wgt>
<wgt id='1639'> +1.5770161e-04 </wgt>
<wgt id='1640'> +1.5771720e-04 </wgt>
<wgt id='1641'> +1.5722304e-04 </wgt>
<wgt id='1642'> +1.5727199e-04 </wgt>
<wgt id='1643'> +1.5736393e-04 </wgt>
<wgt id='1644'> +1.5746397e-04 </wgt>
<wgt id='1645'> +1.5745929e-04 </wgt>
<wgt id='1646'> +1.5762895e-04 </wgt>
<wgt id='1647'> +1.5708265e-04 </wgt>
<wgt id='1648'> +1.5714035e-04 </wgt>
<wgt id='1649'> +1.5779021e-04 </wgt>
<wgt id='1650'> +1.5730995e-04 </wgt>
<wgt id='1651'> +1.5764404e-04 </wgt>
<wgt id='1652'> +1.5737889e-04 </wgt>
<wgt id='1653'> +1.5731800e-04 </wgt>
<wgt id='1654'> +1.5689128e-04 </wgt>
<wgt id='1655'> +1.5779483e-04 </wgt>
<wgt id='1656'> +1.5767803e-04 </wgt>
<wgt id='1657'> +1.5728971e-04 </wgt>
<wgt id='1658'> +1.5800214e-04 </wgt>
<wgt id='1659'> +1.5809593e-04 </wgt>
<wgt id='1660'> +1.5723522e-04 </wgt>
<wgt id='1661'> +1.5743765e-04 </wgt>
<wgt id='1662'> +1.5764543e-04 </wgt>
<wgt id='1663'> +1.5779759e-04 </wgt>
<wgt id='1664'> +1.5744465e-04 </wgt>
<wgt id='1665'> +1.5755846e-04 </wgt>
<wgt id='1666'> +1.5774019e-04 </wgt>
<wgt id='1667'> +1.5746985e-04 </wgt>
<wgt id='1668'> +1.5742626e-04 </wgt>
<wgt id='1669'> +1.5737119e-04 </wgt>
<wgt id='1670'> +1.5724630e-04 </wgt>
<wgt id='1671'> +1.5750240e-04 </wgt>
<wgt id='1672'> +1.5781213e-04 </wgt>
<wgt id='1673'> +1.5751941e-04 </wgt>
<wgt id='1674'> +1.5746595e-04 </wgt>
<wgt id='1675'> +1.5736552e-04 </wgt>
<wgt id='1676'> +1.5722139e-04 </wgt>
<wgt id='1677'> +1.5751056e-04 </wgt>
<wgt id='1678'> +1.5759158e-04 </wgt>
<wgt id='1679'> +1.5764505e-04 </wgt>
<wgt id='1680'> +1.5788646e-04 </wgt>
<wgt id='1681'> +1.5747828e-04 </wgt>
<wgt id='1682'> +1.5734153e-04 </wgt>
<wgt id='1683'> +1.5738576e-04 </wgt>
<wgt id='1684'> +1.5752369e-04 </wgt>
<wgt id='1685'> +1.5740617e-04 </wgt>
<wgt id='1686'> +1.5733278e-04 </wgt>
<wgt id='1687'> +1.5722247e-04 </wgt>
<wgt id='1688'> +1.5743582e-04 </wgt>
<wgt id='1689'> +1.5742218e-04 </wgt>
<wgt id='1690'> +1.5767557e-04 </wgt>
<wgt id='1691'> +1.5749707e-04 </wgt>
<wgt id='1692'> +1.5758747e-04 </wgt>
<wgt id='1693'> +1.5768341e-04 </wgt>
<wgt id='1694'> +1.5767561e-04 </wgt>
<wgt id='1695'> +1.5763898e-04 </wgt>
<wgt id='1696'> +1.5741892e-04 </wgt>
<wgt id='1697'> +1.5752056e-04 </wgt>
<wgt id='1698'> +1.5735254e-04 </wgt>
<wgt id='1699'> +1.5743821e-04 </wgt>
<wgt id='1700'> +1.5736052e-04 </wgt>
<wgt id='1701'> +1.5757683e-04 </wgt>
<wgt id='1702'> +1.5753696e-04 </wgt>
<wgt id='1703'> +1.5739978e-04 </wgt>
<wgt id='1704'> +1.5748148e-04 </wgt>
<wgt id='1705'> +1.5737679e-04 </wgt>
<wgt id='1706'> +1.5743015e-04 </wgt>
<wgt id='1707'> +1.5747048e-04 </wgt>
<wgt id='1708'> +1.5745163e-04 </wgt>
<wgt id='1709'> +1.5764625e-04 </wgt>
<wgt id='1710'> +1.5744577e-04 </wgt>
<wgt id='1711'> +1.5747916e-04 </wgt>
<wgt id='1712'> +1.5746561e-04 </wgt>
<wgt id='1713'> +1.5404640e-04 </wgt>
<wgt id='1714'> +1.6154132e-04 </wgt>
<wgt id='1715'> +0.0000000e+00 </wgt>
<wgt id='1716'> +0.0000000e+00 </wgt>
<wgt id='1717'> +0.0000000e+00 </wgt>
<wgt id='1718'> +0.0000000e+00 </wgt>
<wgt id='1719'> +0.0000000e+00 </wgt>
<wgt id='1720'> +0.0000000e+00 </wgt>
<wgt id='1721'> +0.0000000e+00 </wgt>
<wgt id='1722'> +0.0000000e+00 </wgt>
<wgt id='1723'> +0.0000000e+00 </wgt>
<wgt id='1724'> +0.0000000e+00 </wgt>
<wgt id='1725'> +0.0000000e+00 </wgt>
<wgt id='1726'> +0.0000000e+00 </wgt>
<wgt id='1727'> +0.0000000e+00 </wgt>
<wgt id='1728'> +0.0000000e+00 </wgt>
<wgt id='1729'> +0.0000000e+00 </wgt>
<wgt id='1730'> +0.0000000e+00 </wgt>
<wgt id='1731'> +0.0000000e+00 </wgt>
<wgt id='1732'> +0.0000000e+00 </wgt>
<wgt id='1733'> +0.0000000e+00 </wgt>
<wgt id='1734'> +0.0000000e+00 </wgt>
<wgt id='1735'> +0.0000000e+00 </wgt>
<wgt id='1736'> +0.0000000e+00 </wgt>
<wgt id='1737'> +0.0000000e+00 </wgt>
<wgt id='1738'> +0.0000000e+00 </wgt>
<wgt id='1739'> +0.0000000e+00 </wgt>
<wgt id='1740'> +0.0000000e+00 </wgt>
<wgt id='1741'> +0.0000000e+00 </wgt>
<wgt id='1742'> +0.0000000e+00 </wgt>
<wgt id='1743'> +0.0000000e+00 </wgt>
<wgt id='1744'> +0.0000000e+00 </wgt>
<wgt id='1745'> +0.0000000e+00 </wgt>
<wgt id='1746'> +0.0000000e+00 </wgt>
<wgt id='1747'> +0.0000000e+00 </wgt>
<wgt id='1748'> +0.0000000e+00 </wgt>
<wgt id='1749'> +0.0000000e+00 </wgt>
<wgt id='1750'> +0.0000000e+00 </wgt>
<wgt id='1751'> +0.0000000e+00 </wgt>
<wgt id='1752'> +0.0000000e+00 </wgt>
<wgt id='1753'> +0.0000000e+00 </wgt>
<wgt id='1754'> +0.0000000e+00 </wgt>
<wgt id='1755'> +0.0000000e+00 </wgt>
<wgt id='1756'> +0.0000000e+00 </wgt>
<wgt id='1757'> +0.0000000e+00 </wgt>
<wgt id='1758'> +0.0000000e+00 </wgt>
<wgt id='1759'> +0.0000000e+00 </wgt>
<wgt id='1760'> +0.0000000e+00 </wgt>
<wgt id='1761'> +0.0000000e+00 </wgt>
<wgt id='1762'> +0.0000000e+00 </wgt>
<wgt id='1763'> +0.0000000e+00 </wgt>
<wgt id='1764'> +0.0000000e+00 </wgt>
<wgt id='1765'> +0.0000000e+00 </wgt>
<wgt id='1766'> +0.0000000e+00 </wgt>
<wgt id='1767'> +0.0000000e+00 </wgt>
<wgt id='1768'> +0.0000000e+00 </wgt>
<wgt id='1769'> +0.0000000e+00 </wgt>
<wgt id='1770'> +0.0000000e+00 </wgt>
<wgt id='1771'> +0.0000000e+00 </wgt>
<wgt id='1772'> +0.0000000e+00 </wgt>
<wgt id='1773'> +0.0000000e+00 </wgt>
<wgt id='1774'> +0.0000000e+00 </wgt>
<wgt id='1775'> +0.0000000e+00 </wgt>
<wgt id='1776'> +0.0000000e+00 </wgt>
<wgt id='1777'> +0.0000000e+00 </wgt>
<wgt id='1778'> +0.0000000e+00 </wgt>
<wgt id='1779'> +0.0000000e+00 </wgt>
<wgt id='1780'> +0.0000000e+00 </wgt>
<wgt id='1781'> +0.0000000e+00 </wgt>
<wgt id='1782'> +0.0000000e+00 </wgt>
<wgt id='1783'> +0.0000000e+00 </wgt>
<wgt id='1784'> +0.0000000e+00 </wgt>
<wgt id='1785'> +0.0000000e+00 </wgt>
<wgt id='1786'> +0.0000000e+00 </wgt>
<wgt id='1787'> +0.0000000e+00 </wgt>
<wgt id='1788'> +0.0000000e+00 </wgt>
<wgt id='1789'> +0.0000000e+00 </wgt>
<wgt id='1790'> +0.0000000e+00 </wgt>
<wgt id='1791'> +0.0000000e+00 </wgt>
<wgt id='1792'> +0.0000000e+00 </wgt>
<wgt id='1793'> +0.0000000e+00 </wgt>
<wgt id='1794'> +0.0000000e+00 </wgt>
<wgt id='1795'> +0.0000000e+00 </wgt>
<wgt id='1796'> +0.0000000e+00 </wgt>
<wgt id='1797'> +0.0000000e+00 </wgt>
<wgt id='1798'> +0.0000000e+00 </wgt>
<wgt id='1799'> +0.0000000e+00 </wgt>
<wgt id='1800'> +0.0000000e+00 </wgt>
<wgt id='1801'> +0.0000000e+00 </wgt>
<wgt id='1802'> +0.0000000e+00 </wgt>
<wgt id='1803'> +0.0000000e+00 </wgt>
<wgt id='1804'> +0.0000000e+00 </wgt>
<wgt id='1805'> +0.0000000e+00 </wgt>
<wgt id='1806'> +0.0000000e+00 </wgt>
<wgt id='1807'> +0.0000000e+00 </wgt>
<wgt id='1808'> +0.0000000e+00 </wgt>
<wgt id='1809'> +0.0000000e+00 </wgt>
<wgt id='1810'> +0.0000000e+00 </wgt>
<wgt id='1811'> +0.0000000e+00 </wgt>
<wgt id='1812'> +0.0000000e+00 </wgt>
<wgt id='1813'> +0.0000000e+00 </wgt>
<wgt id='1814'> +0.0000000e+00 </wgt>
<wgt id='1815'> +0.0000000e+00 </wgt>
<wgt id='1816'> +0.0000000e+00 </wgt>
<wgt id='1817'> +0.0000000e+00 </wgt>
<wgt id='1818'> +0.0000000e+00 </wgt>
<wgt id='1819'> +0.0000000e+00 </wgt>
<wgt id='1820'> +0.0000000e+00 </wgt>
<wgt id='1821'> +0.0000000e+00 </wgt>
<wgt id='1822'> +0.0000000e+00 </wgt>
<wgt id='1823'> +0.0000000e+00 </wgt>
<wgt id='1824'> +0.0000000e+00 </wgt>
<wgt id='1825'> +0.0000000e+00 </wgt>
<wgt id='1826'> +0.0000000e+00 </wgt>
<wgt id='1827'> +0.0000000e+00 </wgt>
<wgt id='1828'> +0.0000000e+00 </wgt>
<wgt id='1829'> +0.0000000e+00 </wgt>
<wgt id='1830'> +0.0000000e+00 </wgt>
<wgt id='1831'> +0.0000000e+00 </wgt>
<wgt id='1832'> +0.0000000e+00 </wgt>
<wgt id='1833'> +0.0000000e+00 </wgt>
<wgt id='1834'> +0.0000000e+00 </wgt>
<wgt id='1835'> +0.0000000e+00 </wgt>
<wgt id='1836'> +0.0000000e+00 </wgt>
<wgt id='1837'> +0.0000000e+00 </wgt>
<wgt id='1838'> +0.0000000e+00 </wgt>
<wgt id='1839'> +0.0000000e+00 </wgt>
<wgt id='1840'> +0.0000000e+00 </wgt>
<wgt id='1841'> +0.0000000e+00 </wgt>
<wgt id='1842'> +0.0000000e+00 </wgt>
<wgt id='1843'> +0.0000000e+00 </wgt>
<wgt id='1844'> +0.0000000e+00 </wgt>
<wgt id='1845'> +0.0000000e+00 </wgt>
<wgt id='1846'> +0.0000000e+00 </wgt>
<wgt id='1847'> +0.0000000e+00 </wgt>
<wgt id='1848'> +0.0000000e+00 </wgt>
<wgt id='1849'> +0.0000000e+00 </wgt>
<wgt id='1850'> +0.0000000e+00 </wgt>
<wgt id='1851'> +0.0000000e+00 </wgt>
<wgt id='1852'> +0.0000000e+00 </wgt>
<wgt id='1853'> +0.0000000e+00 </wgt>
<wgt id='1854'> +0.0000000e+00 </wgt>
<wgt id='1855'> +0.0000000e+00 </wgt>
<wgt id='1856'> +0.0000000e+00 </wgt>
<wgt id='1857'> +0.0000000e+00 </wgt>
<wgt id='1858'> +0.0000000e+00 </wgt>
<wgt id='1859'> +0.0000000e+00 </wgt>
<wgt id='1860'> +0.0000000e+00 </wgt>
<wgt id='1861'> +0.0000000e+00 </wgt>
<wgt id='1862'> +0.0000000e+00 </wgt>
<wgt id='1863'> +0.0000000e+00 </wgt>
<wgt id='1864'> +0.0000000e+00 </wgt>
<wgt id='1865'> +0.0000000e+00 </wgt>
<wgt id='1866'> +0.0000000e+00 </wgt>
<wgt id='1867'> +0.0000000e+00 </wgt>
<wgt id='1868'> +0.0000000e+00 </wgt>
<wgt id='1869'> +0.0000000e+00 </wgt>
<wgt id='1870'> +0.0000000e+00 </wgt>
<wgt id='1871'> +0.0000000e+00 </wgt>
<wgt id='1872'> +0.0000000e+00 </wgt>
<wgt id='1873'> +0.0000000e+00 </wgt>
<wgt id='1874'> +0.0000000e+00 </wgt>
<wgt id='1875'> +0.0000000e+00 </wgt>
<wgt id='1876'> +0.0000000e+00 </wgt>
<wgt id='1877'> +0.0000000e+00 </wgt>
<wgt id='1878'> +0.0000000e+00 </wgt>
<wgt id='1879'> +0.0000000e+00 </wgt>
<wgt id='1880'> +0.0000000e+00 </wgt>
<wgt id='1881'> +0.0000000e+00 </wgt>
<wgt id='1882'> +0.0000000e+00 </wgt>
<wgt id='1883'> +0.0000000e+00 </wgt>
<wgt id='1884'> +0.0000000e+00 </wgt>
<wgt id='1885'> +0.0000000e+00 </wgt>
<wgt id='1886'> +0.0000000e+00 </wgt>
<wgt id='1887'> +0.0000000e+00 </wgt>
<wgt id='1888'> +0.0000000e+00 </wgt>
<wgt id='1889'> +0.0000000e+00 </wgt>
<wgt id='1890'> +0.0000000e+00 </wgt>
<wgt id='1891'> +0.0000000e+00 </wgt>
<wgt id='1892'> +0.0000000e+00 </wgt>
<wgt id='1893'> +0.0000000e+00 </wgt>
<wgt id='1894'> +0.0000000e+00 </wgt>
<wgt id='1895'> +0.0000000e+00 </wgt>
<wgt id='1896'> +0.0000000e+00 </wgt>
<wgt id='1897'> +0.0000000e+00 </wgt>
<wgt id='1898'> +0.0000000e+00 </wgt>
<wgt id='1899'> +0.0000000e+00 </wgt>
<wgt id='1900'> +0.0000000e+00 </wgt>
<wgt id='1901'> +0.0000000e+00 </wgt>
<wgt id='1902'> +0.0000000e+00 </wgt>
<wgt id='1903'> +0.0000000e+00 </wgt>
<wgt id='1904'> +0.0000000e+00 </wgt>
<wgt id='1905'> +0.0000000e+00 </wgt>
<wgt id='1906'> +0.0000000e+00 </wgt>
<wgt id='1907'> +0.0000000e+00 </wgt>
<wgt id='1908'> +0.0000000e+00 </wgt>
<wgt id='1909'> +0.0000000e+00 </wgt>
<wgt id='1910'> +0.0000000e+00 </wgt>
<wgt id='1911'> +0.0000000e+00 </wgt>
<wgt id='1912'> +0.0000000e+00 </wgt>
<wgt id='1913'> +0.0000000e+00 </wgt>
<wgt id='1914'> +0.0000000e+00 </wgt>
<wgt id='1915'> +0.0000000e+00 </wgt>
<wgt id='1916'> +0.0000000e+00 </wgt>
<wgt id='1917'> +0.0000000e+00 </wgt>
<wgt id='1918'> +0.0000000e+00 </wgt>
<wgt id='1919'> +0.0000000e+00 </wgt>
<wgt id='1920'> +0.0000000e+00 </wgt>
<wgt id='1921'> +0.0000000e+00 </wgt>
<wgt id='1922'> +0.0000000e+00 </wgt>
<wgt id='1923'> +0.0000000e+00 </wgt>
<wgt id='1924'> +0.0000000e+00 </wgt>
<wgt id='1925'> +0.0000000e+00 </wgt>
<wgt id='1926'> +0.0000000e+00 </wgt>
<wgt id='1927'> +0.0000000e+00 </wgt>
<wgt id='1928'> +0.0000000e+00 </wgt>
<wgt id='1929'> +0.0000000e+00 </wgt>
<wgt id='1930'> +0.0000000e+00 </wgt>
<wgt id='1931'> +0.0000000e+00 </wgt>
<wgt id='1932'> +0.0000000e+00 </wgt>
<wgt id='1933'> +0.0000000e+00 </wgt>
<wgt id='1934'> +0.0000000e+00 </wgt>
<wgt id='1935'> +0.0000000e+00 </wgt>
<wgt id='1936'> +0.0000000e+00 </wgt>
<wgt id='1937'> +0.0000000e+00 </wgt>
<wgt id='1938'> +0.0000000e+00 </wgt>
<wgt id='1939'> +0.0000000e+00 </wgt>
<wgt id='1940'> +0.0000000e+00 </wgt>
<wgt id='1941'> +0.0000000e+00 </wgt>
<wgt id='1942'> +0.0000000e+00 </wgt>
<wgt id='1943'> +0.0000000e+00 </wgt>
<wgt id='1944'> +0.0000000e+00 </wgt>
<wgt id='1945'> +0.0000000e+00 </wgt>
<wgt id='1946'> +0.0000000e+00 </wgt>
<wgt id='1947'> +0.0000000e+00 </wgt>
<wgt id='1948'> +0.0000000e+00 </wgt>
<wgt id='1949'> +0.0000000e+00 </wgt>
<wgt id='1950'> +0.0000000e+00 </wgt>
<wgt id='1951'> +0.0000000e+00 </wgt>
<wgt id='1952'> +0.0000000e+00 </wgt>
<wgt id='1953'> +0.0000000e+00 </wgt>
<wgt id='1954'> +0.0000000e+00 </wgt>
<wgt id='1955'> +0.0000000e+00 </wgt>
<wgt id='1956'> +0.0000000e+00 </wgt>
<wgt id='1957'> +0.0000000e+00 </wgt>
<wgt id='1958'> +0.0000000e+00 </wgt>
<wgt id='1959'> +0.0000000e+00 </wgt>
<wgt id='1960'> +0.0000000e+00 </wgt>
<wgt id='1961'> +0.0000000e+00 </wgt>
<wgt id='1962'> +0.0000000e+00 </wgt>
<wgt id='1963'> +0.0000000e+00 </wgt>
<wgt id='1964'> +0.0000000e+00 </wgt>
<wgt id='1965'> +0.0000000e+00 </wgt>
<wgt id='1966'> +0.0000000e+00 </wgt>
<wgt id='1967'> +0.0000000e+00 </wgt>
<wgt id='1968'> +0.0000000e+00 </wgt>
<wgt id='1969'> +0.0000000e+00 </wgt>
<wgt id='1970'> +0.0000000e+00 </wgt>
<wgt id='1971'> +0.0000000e+00 </wgt>
<wgt id='1972'> +0.0000000e+00 </wgt>
<wgt id='1973'> +0.0000000e+00 </wgt>
<wgt id='1974'> +0.0000000e+00 </wgt>
<wgt id='1975'> +0.0000000e+00 </wgt>
<wgt id='1976'> +0.0000000e+00 </wgt>
<wgt id='1977'> +0.0000000e+00 </wgt>
<wgt id='1978'> +0.0000000e+00 </wgt>
<wgt id='1979'> +0.0000000e+00 </wgt>
<wgt id='1980'> +0.0000000e+00 </wgt>
<wgt id='1981'> +0.0000000e+00 </wgt>
<wgt id='1982'> +0.0000000e+00 </wgt>
<wgt id='1983'> +0.0000000e+00 </wgt>
<wgt id='1984'> +0.0000000e+00 </wgt>
<wgt id='1985'> +0.0000000e+00 </wgt>
<wgt id='1986'> +0.0000000e+00 </wgt>
<wgt id='1987'> +0.0000000e+00 </wgt>
<wgt id='1988'> +0.0000000e+00 </wgt>
<wgt id='1989'> +0.0000000e+00 </wgt>
<wgt id='1990'> +0.0000000e+00 </wgt>
<wgt id='1991'> +0.0000000e+00 </wgt>
<wgt id='1992'> +0.0000000e+00 </wgt>
<wgt id='1993'> +0.0000000e+00 </wgt>
<wgt id='1994'> +0.0000000e+00 </wgt>
<wgt id='1995'> +0.0000000e+00 </wgt>
<wgt id='1996'> +0.0000000e+00 </wgt>
<wgt id='1997'> +0.0000000e+00 </wgt>
<wgt id='1998'> +0.0000000e+00 </wgt>
<wgt id='1999'> +0.0000000e+00 </wgt>
<wgt id='2000'> +0.0000000e+00 </wgt>
<wgt id='2001'> +0.0000000e+00 </wgt>
<wgt id='2002'> +0.0000000e+00 </wgt>
<wgt id='2003'> +0.0000000e+00 </wgt>
<wgt id='2004'> +0.0000000e+00 </wgt>
<wgt id='2005'> +0.0000000e+00 </wgt>
<wgt id='2006'> +0.0000000e+00 </wgt>
<wgt id='2007'> +0.0000000e+00 </wgt>
<wgt id='2008'> +0.0000000e+00 </wgt>
<wgt id='2009'> +0.0000000e+00 </wgt>
<wgt id='2010'> +0.0000000e+00 </wgt>
<wgt id='2011'> +0.0000000e+00 </wgt>
<wgt id='2012'> +0.0000000e+00 </wgt>
<wgt id='2013'> +0.0000000e+00 </wgt>
<wgt id='2014'> +0.0000000e+00 </wgt>
<wgt id='2015'> +0.0000000e+00 </wgt>
<wgt id='2016'> +0.0000000e+00 </wgt>
<wgt id='2017'> +0.0000000e+00 </wgt>
<wgt id='2018'> +0.0000000e+00 </wgt>
<wgt id='2019'> +0.0000000e+00 </wgt>
<wgt id='2020'> +0.0000000e+00 </wgt>
<wgt id='2021'> +0.0000000e+00 </wgt>
<wgt id='2022'> +0.0000000e+00 </wgt>
</rwgt>
</event>
<event>
14      2 +1.5732536e-04 3.47331400e+02 7.81860800e-03 1.00973500e-01
        2 -1    0    0  502    0 +0.0000000000e+00 +0.0000000000e+00 +7.1594969641e+02 7.1594969641e+02 2.5500000000e-03 0.0000e+00 -1.0000e+00
       -5 -1    0    0    0  501 +0.0000000000e+00 +0.0000000000e+00 -1.4507826767e+03 1.4507902898e+03 4.7000000000e+00 0.0000e+00 1.0000e+00
        2  1    1    2  502    0 +1.0544081152e+02 +3.7399997683e+02 +3.9074965491e+02 5.5107081235e+02 2.5500000000e-03 0.0000e+00 -1.0000e+00
       24  2    1    2    0    0 +2.8646094345e+01 +7.0675767895e+01 +8.8847994639e+01 1.4374440212e+02 8.3383596113e+01 0.0000e+00 0.0000e+00
        4  1    4    4  503    0 +4.7760992080e+01 +1.0648844130e+01 +2.9251206199e+01 5.7024172153e+01 1.2700000000e+00 0.0000e+00 -1.0000e+00
       -3  1    4    4    0  503 -1.9114897734e+01 +6.0026923765e+01 +5.9596788440e+01 8.6720229967e+01 1.0100000000e-01 0.0000e+00 1.0000e+00
       23  2    1    2    0    0 -2.0582667068e+02 +1.0402927020e+02 -2.9581623131e+02 3.8569620410e+02 8.9819884942e+01 0.0000e+00 0.0000e+00
        3  1    7    7  504    0 -1.0567892875e+02 +9.5564787443e+01 -1.3641631399e+02 1.9725639534e+02 1.0100000000e-01 0.0000e+00 1.0000e+00
       -3  1    7    7    0  504 -1.0014774194e+02 +8.4644827552e+00 -1.5939991732e+02 1.8843980876e+02 1.0100000000e-01 0.0000e+00 -1.0000e+00
       -6  2    1    2    0  501 +7.1739764817e+01 -5.4870501492e+02 -9.1861439853e+02 1.0862285677e+03 1.7267397236e+02 0.0000e+00 0.0000e+00
       -5  1   10   10    0  501 -3.9351407200e+01 -2.1660291744e+02 -3.6249284176e+02 4.2413265309e+02 4.7000000000e+00 0.0000e+00 1.0000e+00
      -24  2   10   10    0    0 +1.1109117202e+02 -3.3210209748e+02 -5.5612155677e+02 6.6209591456e+02 8.0416183183e+01 0.0000e+00 0.0000e+00
      -14  1   12   12    0    0 +9.2786331465e+01 -1.6556759086e+02 -3.2976610344e+02 3.8048339442e+02 0.0000000000e+00 0.0000e+00 1.0000e+00
       13  1   12   12    0    0 +1.8304840552e+01 -1.6653450662e+02 -2.2635545333e+02 2.8161252014e+02 1.0566000000e-01 0.0000e+00 -1.0000e+00
<mgrwt>
<rscale>  0 0.27954487e+03</rscale>
<asrwt>0</asrwt>
<pdfrwt beam="1">  1        2 0.10227853e+00 0.22498784e+03</pdfrwt>
<pdfrwt beam="2">  1       -5 0.20725631e+00 0.34733138e+03</pdfrwt>
<totfact> 0.10858729e+00</totfact>
</mgrwt>
<rwgt>
<wgt id='1001'> +1.5732536e-04 </wgt>
<wgt id='1002'> +1.5064250e-04 </wgt>
<wgt id='1003'> +1.5064234e-04 </wgt>
<wgt id='1004'> +1.5366797e-04 </wgt>
<wgt id='1005'> +1.4836457e-04 </wgt>
<wgt id='1006'> +1.5732536e-04 </wgt>
<wgt id='1007'> +1.5064250e-04 </wgt>
<wgt id='1008'> +1.5064234e-04 </wgt>
<wgt id='1009'> +1.5366797e-04 </wgt>
<wgt id='1010'> +1.4836457e-04 </wgt>
<wgt id='1011'> +1.5732536e-04 </wgt>
<wgt id='1012'> +1.5064250e-04 </wgt>
<wgt id='1013'> +1.5064234e-04 </wgt>
<wgt id='1014'> +1.5366797e-04 </wgt>
<wgt id='1015'> +1.4836457e-04 </wgt>
<wgt id='1016'> +1.5520692e-04 </wgt>
<wgt id='1017'> +1.4685402e-04 </wgt>
<wgt id='1018'> +1.4685383e-04 </wgt>
<wgt id='1019'> +1.5064234e-04 </wgt>
<wgt id='1020'> +1.4432957e-04 </wgt>
<wgt id='1021'> +1.5520692e-04 </wgt>
<wgt id='1022'> +1.4685402e-04 </wgt>
<wgt id='1023'> +1.4685383e-04 </wgt>
<wgt id='1024'> +1.5064234e-04 </wgt>
<wgt id='1025'> +1.4432957e-04 </wgt>
<wgt id='1026'> +1.5520692e-04 </wgt>
<wgt id='1027'> +1.4685402e-04 </wgt>
<wgt id='1028'> +1.4685383e-04 </wgt>
<wgt id='1029'> +1.5064234e-04 </wgt>
<wgt id='1030'> +1.4432957e-04 </wgt>
<wgt id='1031'> +1.5753273e-04 </wgt>
<wgt id='1032'> +1.5366810e-04 </wgt>
<wgt id='1033'> +1.5366797e-04 </wgt>
<wgt id='1034'> +1.5558825e-04 </wgt>
<wgt id='1035'> +1.5186030e-04 </wgt>
<wgt id='1036'> +1.5753273e-04 </wgt>
<wgt id='1037'> +1.5366810e-04 </wgt>
<wgt id='1038'> +1.5366797e-04 </wgt>
<wgt id='1039'> +1.5558825e-04 </wgt>
<wgt id='1040'> +1.5186030e-04 </wgt>
<wgt id='1041'> +1.5753273e-04 </wgt>
<wgt id='1042'> +1.5366810e-04 </wgt>
<wgt id='1043'> +1.5366797e-04 </wgt>
<wgt id='1044'> +1.5558825e-04 </wgt>
<wgt id='1045'> +1.5186030e-04 </wgt>
<wgt id='1046'> +1.5732536e-04 </wgt>
<wgt id='1047'> +1.5732536e-04 </wgt>
<wgt id='1048'> +0.0000000e+00 </wgt>
<wgt id='1049'> +0.0000000e+00 </wgt>
<wgt id='1050'> +0.0000000e+00 </wgt>
<wgt id='1051'> +0.0000000e+00 </wgt>
<wgt id='1052'> +0.0000000e+00 </wgt>
<wgt id='1053'> +0.0000000e+00 </wgt>
<wgt id='1054'> +0.0000000e+00 </wgt>
<wgt id='1055'> +0.0000000e+00 </wgt>
<wgt id='1056'> +0.0000000e+00 </wgt>
<wgt id='1057'> +0.0000000e+00 </wgt>
<wgt id='1058'> +0.0000000e+00 </wgt>
<wgt id='1059'> +0.0000000e+00 </wgt>
<wgt id='1060'> +0.0000000e+00 </wgt>
<wgt id='1061'> +0.0000000e+00 </wgt>
<wgt id='1062'> +0.0000000e+00 </wgt>
<wgt id='1063'> +0.0000000e+00 </wgt>
<wgt id='1064'> +0.0000000e+00 </wgt>
<wgt id='1065'> +0.0000000e+00 </wgt>
<wgt id='1066'> +0.0000000e+00 </wgt>
<wgt id='1067'> +0.0000000e+00 </wgt>
<wgt id='1068'> +0.0000000e+00 </wgt>
<wgt id='1069'> +0.0000000e+00 </wgt>
<wgt id='1070'> +0.0000000e+00 </wgt>
<wgt id='1071'> +0.0000000e+00 </wgt>
<wgt id='1072'> +0.0000000e+00 </wgt>
<wgt id='1073'> +0.0000000e+00 </wgt>
<wgt id='1074'> +0.0000000e+00 </wgt>
<wgt id='1075'> +0.0000000e+00 </wgt>
<wgt id='1076'> +0.0000000e+00 </wgt>
<wgt id='1077'> +0.0000000e+00 </wgt>
<wgt id='1078'> +0.0000000e+00 </wgt>
<wgt id='1079'> +0.0000000e+00 </wgt>
<wgt id='1080'> +0.0000000e+00 </wgt>
<wgt id='1081'> +0.0000000e+00 </wgt>
<wgt id='1082'> +0.0000000e+00 </wgt>
<wgt id='1083'> +0.0000000e+00 </wgt>
<wgt id='1084'> +0.0000000e+00 </wgt>
<wgt id='1085'> +0.0000000e+00 </wgt>
<wgt id='1086'> +0.0000000e+00 </wgt>
<wgt id='1087'> +0.0000000e+00 </wgt>
<wgt id='1088'> +0.0000000e+00 </wgt>
<wgt id='1089'> +0.0000000e+00 </wgt>
<wgt id='1090'> +0.0000000e+00 </wgt>
<wgt id='1091'> +0.0000000e+00 </wgt>
<wgt id='1092'> +0.0000000e+00 </wgt>
<wgt id='1093'> +0.0000000e+00 </wgt>
<wgt id='1094'> +0.0000000e+00 </wgt>
<wgt id='1095'> +0.0000000e+00 </wgt>
<wgt id='1096'> +0.0000000e+00 </wgt>
<wgt id='1097'> +0.0000000e+00 </wgt>
<wgt id='1098'> +0.0000000e+00 </wgt>
<wgt id='1099'> +0.0000000e+00 </wgt>
<wgt id='1100'> +0.0000000e+00 </wgt>
<wgt id='1101'> +0.0000000e+00 </wgt>
<wgt id='1102'> +0.0000000e+00 </wgt>
<wgt id='1103'> +0.0000000e+00 </wgt>
<wgt id='1104'> +0.0000000e+00 </wgt>
<wgt id='1105'> +0.0000000e+00 </wgt>
<wgt id='1106'> +0.0000000e+00 </wgt>
<wgt id='1107'> +0.0000000e+00 </wgt>
<wgt id='1108'> +0.0000000e+00 </wgt>
<wgt id='1109'> +0.0000000e+00 </wgt>
<wgt id='1110'> +0.0000000e+00 </wgt>
<wgt id='1111'> +0.0000000e+00 </wgt>
<wgt id='1112'> +0.0000000e+00 </wgt>
<wgt id='1113'> +0.0000000e+00 </wgt>
<wgt id='1114'> +0.0000000e+00 </wgt>
<wgt id='1115'> +0.0000000e+00 </wgt>
<wgt id='1116'> +0.0000000e+00 </wgt>
<wgt id='1117'> +0.0000000e+00 </wgt>
<wgt id='1118'> +0.0000000e+00 </wgt>
<wgt id='1119'> +0.0000000e+00 </wgt>
<wgt id='1120'> +0.0000000e+00 </wgt>
<wgt id='1121'> +0.0000000e+00 </wgt>
<wgt id='1122'> +0.0000000e+00 </wgt>
<wgt id='1123'> +0.0000000e+00 </wgt>
<wgt id='1124'> +0.0000000e+00 </wgt>
<wgt id='1125'> +0.0000000e+00 </wgt>
<wgt id='1126'> +0.0000000e+00 </wgt>
<wgt id='1127'> +0.0000000e+00 </wgt>
<wgt id='1128'> +0.0000000e+00 </wgt>
<wgt id='1129'> +0.0000000e+00 </wgt>
<wgt id='1130'> +0.0000000e+00 </wgt>
<wgt id='1131'> +0.0000000e+00 </wgt>
<wgt id='1132'> +0.0000000e+00 </wgt>
<wgt id='1133'> +0.0000000e+00 </wgt>
<wgt id='1134'> +0.0000000e+00 </wgt>
<wgt id='1135'> +0.0000000e+00 </wgt>
<wgt id='1136'> +0.0000000e+00 </wgt>
<wgt id='1137'> +0.0000000e+00 </wgt>
<wgt id='1138'> +0.0000000e+00 </wgt>
<wgt id='1139'> +0.0000000e+00 </wgt>
<wgt id='1140'> +0.0000000e+00 </wgt>
<wgt id='1141'> +0.0000000e+00 </wgt>
<wgt id='1142'> +0.0000000e+00 </wgt>
<wgt id='1143'> +0.0000000e+00 </wgt>
<wgt id='1144'> +0.0000000e+00 </wgt>
<wgt id='1145'> +0.0000000e+00 </wgt>
<wgt id='1146'> +0.0000000e+00 </wgt>
<wgt id='1147'> +0.0000000e+00 </wgt>
<wgt id='1148'> +0.0000000e+00 </wgt>
<wgt id='1149'> +0.0000000e+00 </wgt>
<wgt id='1150'> +0.0000000e+00 </wgt>
<wgt id='1151'> +0.0000000e+00 </wgt>
<wgt id='1152'> +0.0000000e+00 </wgt>
<wgt id='1153'> +0.0000000e+00 </wgt>
<wgt id='1154'> +0.0000000e+00 </wgt>
<wgt id='1155'> +0.0000000e+00 </wgt>
<wgt id='1156'> +0.0000000e+00 </wgt>
<wgt id='1157'> +0.0000000e+00 </wgt>
<wgt id='1158'> +0.0000000e+00 </wgt>
<wgt id='1159'> +0.0000000e+00 </wgt>
<wgt id='1160'> +0.0000000e+00 </wgt>
<wgt id='1161'> +0.0000000e+00 </wgt>
<wgt id='1162'> +0.0000000e+00 </wgt>
<wgt id='1163'> +0.0000000e+00 </wgt>
<wgt id='1164'> +0.0000000e+00 </wgt>
<wgt id='1165'> +0.0000000e+00 </wgt>
<wgt id='1166'> +0.0000000e+00 </wgt>
<wgt id='1167'> +0.0000000e+00 </wgt>
<wgt id='1168'> +0.0000000e+00 </wgt>
<wgt id='1169'> +0.0000000e+00 </wgt>
<wgt id='1170'> +0.0000000e+00 </wgt>
<wgt id='1171'> +0.0000000e+00 </wgt>
<wgt id='1172'> +0.0000000e+00 </wgt>
<wgt id='1173'> +0.0000000e+00 </wgt>
<wgt id='1174'> +0.0000000e+00 </wgt>
<wgt id='1175'> +0.0000000e+00 </wgt>
<wgt id='1176'> +0.0000000e+00 </wgt>
<wgt id='1177'> +0.0000000e+00 </wgt>
<wgt id='1178'> +0.0000000e+00 </wgt>
<wgt id='1179'> +0.0000000e+00 </wgt>
<wgt id='1180'> +0.0000000e+00 </wgt>
<wgt id='1181'> +0.0000000e+00 </wgt>
<wgt id='1182'> +0.0000000e+00 </wgt>
<wgt id='1183'> +0.0000000e+00 </wgt>
<wgt id='1184'> +0.0000000e+00 </wgt>
<wgt id='1185'> +0.0000000e+00 </wgt>
<wgt id='1186'> +0.0000000e+00 </wgt>
<wgt id='1187'> +0.0000000e+00 </wgt>
<wgt id='1188'> +0.0000000e+00 </wgt>
<wgt id='1189'> +0.0000000e+00 </wgt>
<wgt id='1190'> +0.0000000e+00 </wgt>
<wgt id='1191'> +0.0000000e+00 </wgt>
<wgt id='1192'> +0.0000000e+00 </wgt>
<wgt id='1193'> +0.0000000e+00 </wgt>
<wgt id='1194'> +0.0000000e+00 </wgt>
<wgt id='1195'> +0.0000000e+00 </wgt>
<wgt id='1196'> +0.0000000e+00 </wgt>
<wgt id='1197'> +0.0000000e+00 </wgt>
<wgt id='1198'> +0.0000000e+00 </wgt>
<wgt id='1199'> +0.0000000e+00 </wgt>
<wgt id='1200'> +0.0000000e+00 </wgt>
<wgt id='1201'> +0.0000000e+00 </wgt>
<wgt id='1202'> +0.0000000e+00 </wgt>
<wgt id='1203'> +0.0000000e+00 </wgt>
<wgt id='1204'> +0.0000000e+00 </wgt>
<wgt id='1205'> +0.0000000e+00 </wgt>
<wgt id='1206'> +0.0000000e+00 </wgt>
<wgt id='1207'> +0.0000000e+00 </wgt>
<wgt id='1208'> +0.0000000e+00 </wgt>
<wgt id='1209'> +0.0000000e+00 </wgt>
<wgt id='1210'> +0.0000000e+00 </wgt>
<wgt id='1211'> +0.0000000e+00 </wgt>
<wgt id='1212'> +0.0000000e+00 </wgt>
<wgt id='1213'> +0.0000000e+00 </wgt>
<wgt id='1214'> +0.0000000e+00 </wgt>
<wgt id='1215'> +0.0000000e+00 </wgt>
<wgt id='1216'> +0.0000000e+00 </wgt>
<wgt id='1217'> +0.0000000e+00 </wgt>
<wgt id='1218'> +0.0000000e+00 </wgt>
<wgt id='1219'> +0.0000000e+00 </wgt>
<wgt id='1220'> +0.0000000e+00 </wgt>
<wgt id='1221'> +0.0000000e+00 </wgt>
<wgt id='1222'> +0.0000000e+00 </wgt>
<wgt id='1223'> +0.0000000e+00 </wgt>
<wgt id='1224'> +0.0000000e+00 </wgt>
<wgt id='1225'> +0.0000000e+00 </wgt>
<wgt id='1226'> +0.0000000e+00 </wgt>
<wgt id='1227'> +0.0000000e+00 </wgt>
<wgt id='1228'> +0.0000000e+00 </wgt>
<wgt id='1229'> +0.0000000e+00 </wgt>
<wgt id='1230'> +0.0000000e+00 </wgt>
<wgt id='1231'> +0.0000000e+00 </wgt>
<wgt id='1232'> +0.0000000e+00 </wgt>
<wgt id='1233'> +0.0000000e+00 </wgt>
<wgt id='1234'> +0.0000000e+00 </wgt>
<wgt id='1235'> +0.0000000e+00 </wgt>
<wgt id='1236'> +0.0000000e+00 </wgt>
<wgt id='1237'> +0.0000000e+00 </wgt>
<wgt id='1238'> +0.0000000e+00 </wgt>
<wgt id='1239'> +0.0000000e+00 </wgt>
<wgt id='1240'> +0.0000000e+00 </wgt>
<wgt id='1241'> +0.0000000e+00 </wgt>
<wgt id='1242'> +0.0000000e+00 </wgt>
<wgt id='1243'> +0.0000000e+00 </wgt>
<wgt id='1244'> +0.0000000e+00 </wgt>
<wgt id='1245'> +0.0000000e+00 </wgt>
<wgt id='1246'> +0.0000000e+00 </wgt>
<wgt id='1247'> +0.0000000e+00 </wgt>
<wgt id='1248'> +0.0000000e+00 </wgt>
<wgt id='1249'> +0.0000000e+00 </wgt>
<wgt id='1250'> +0.0000000e+00 </wgt>
<wgt id='1251'> +0.0000000e+00 </wgt>
<wgt id='1252'> +0.0000000e+00 </wgt>
<wgt id='1253'> +0.0000000e+00 </wgt>
<wgt id='1254'> +0.0000000e+00 </wgt>
<wgt id='1255'> +0.0000000e+00 </wgt>
<wgt id='1256'> +0.0000000e+00 </wgt>
<wgt id='1257'> +0.0000000e+00 </wgt>
<wgt id='1258'> +0.0000000e+00 </wgt>
<wgt id='1259'> +0.0000000e+00 </wgt>
<wgt id='1260'> +0.0000000e+00 </wgt>
<wgt id='1261'> +0.0000000e+00 </wgt>
<wgt id='1262'> +0.0000000e+00 </wgt>
<wgt id='1263'> +0.0000000e+00 </wgt>
<wgt id='1264'> +0.0000000e+00 </wgt>
<wgt id='1265'> +0.0000000e+00 </wgt>
<wgt id='1266'> +0.0000000e+00 </wgt>
<wgt id='1267'> +0.0000000e+00 </wgt>
<wgt id='1268'> +0.0000000e+00 </wgt>
<wgt id='1269'> +0.0000000e+00 </wgt>
<wgt id='1270'> +0.0000000e+00 </wgt>
<wgt id='1271'> +0.0000000e+00 </wgt>
<wgt id='1272'> +0.0000000e+00 </wgt>
<wgt id='1273'> +0.0000000e+00 </wgt>
<wgt id='1274'> +0.0000000e+00 </wgt>
<wgt id='1275'> +0.0000000e+00 </wgt>
<wgt id='1276'> +0.0000000e+00 </wgt>
<wgt id='1277'> +0.0000000e+00 </wgt>
<wgt id='1278'> +0.0000000e+00 </wgt>
<wgt id='1279'> +0.0000000e+00 </wgt>
<wgt id='1280'> +0.0000000e+00 </wgt>
<wgt id='1281'> +0.0000000e+00 </wgt>
<wgt id='1282'> +0.0000000e+00 </wgt>
<wgt id='1283'> +0.0000000e+00 </wgt>
<wgt id='1284'> +0.0000000e+00 </wgt>
<wgt id='1285'> +0.0000000e+00 </wgt>
<wgt id='1286'> +0.0000000e+00 </wgt>
<wgt id='1287'> +0.0000000e+00 </wgt>
<wgt id='1288'> +0.0000000e+00 </wgt>
<wgt id='1289'> +0.0000000e+00 </wgt>
<wgt id='1290'> +0.0000000e+00 </wgt>
<wgt id='1291'> +0.0000000e+00 </wgt>
<wgt id='1292'> +0.0000000e+00 </wgt>
<wgt id='1293'> +0.0000000e+00 </wgt>
<wgt id='1294'> +0.0000000e+00 </wgt>
<wgt id='1295'> +0.0000000e+00 </wgt>
<wgt id='1296'> +0.0000000e+00 </wgt>
<wgt id='1297'> +0.0000000e+00 </wgt>
<wgt id='1298'> +0.0000000e+00 </wgt>
<wgt id='1299'> +0.0000000e+00 </wgt>
<wgt id='1300'> +0.0000000e+00 </wgt>
<wgt id='1301'> +0.0000000e+00 </wgt>
<wgt id='1302'> +0.0000000e+00 </wgt>
<wgt id='1303'> +0.0000000e+00 </wgt>
<wgt id='1304'> +0.0000000e+00 </wgt>
<wgt id='1305'> +0.0000000e+00 </wgt>
<wgt id='1306'> +0.0000000e+00 </wgt>
<wgt id='1307'> +0.0000000e+00 </wgt>
<wgt id='1308'> +0.0000000e+00 </wgt>
<wgt id='1309'> +0.0000000e+00 </wgt>
<wgt id='1310'> +0.0000000e+00 </wgt>
<wgt id='1311'> +0.0000000e+00 </wgt>
<wgt id='1312'> +0.0000000e+00 </wgt>
<wgt id='1313'> +0.0000000e+00 </wgt>
<wgt id='1314'> +0.0000000e+00 </wgt>
<wgt id='1315'> +0.0000000e+00 </wgt>
<wgt id='1316'> +0.0000000e+00 </wgt>
<wgt id='1317'> +0.0000000e+00 </wgt>
<wgt id='1318'> +0.0000000e+00 </wgt>
<wgt id='1319'> +0.0000000e+00 </wgt>
<wgt id='1320'> +0.0000000e+00 </wgt>
<wgt id='1321'> +0.0000000e+00 </wgt>
<wgt id='1322'> +0.0000000e+00 </wgt>
<wgt id='1323'> +0.0000000e+00 </wgt>
<wgt id='1324'> +0.0000000e+00 </wgt>
<wgt id='1325'> +0.0000000e+00 </wgt>
<wgt id='1326'> +0.0000000e+00 </wgt>
<wgt id='1327'> +0.0000000e+00 </wgt>
<wgt id='1328'> +0.0000000e+00 </wgt>
<wgt id='1329'> +0.0000000e+00 </wgt>
<wgt id='1330'> +0.0000000e+00 </wgt>
<wgt id='1331'> +0.0000000e+00 </wgt>
<wgt id='1332'> +0.0000000e+00 </wgt>
<wgt id='1333'> +0.0000000e+00 </wgt>
<wgt id='1334'> +0.0000000e+00 </wgt>
<wgt id='1335'> +0.0000000e+00 </wgt>
<wgt id='1336'> +0.0000000e+00 </wgt>
<wgt id='1337'> +0.0000000e+00 </wgt>
<wgt id='1338'> +0.0000000e+00 </wgt>
<wgt id='1339'> +0.0000000e+00 </wgt>
<wgt id='1340'> +0.0000000e+00 </wgt>
<wgt id='1341'> +0.0000000e+00 </wgt>
<wgt id='1342'> +0.0000000e+00 </wgt>
<wgt id='1343'> +0.0000000e+00 </wgt>
<wgt id='1344'> +0.0000000e+00 </wgt>
<wgt id='1345'> +0.0000000e+00 </wgt>
<wgt id='1346'> +0.0000000e+00 </wgt>
<wgt id='1347'> +0.0000000e+00 </wgt>
<wgt id='1348'> +0.0000000e+00 </wgt>
<wgt id='1349'> +0.0000000e+00 </wgt>
<wgt id='1350'> +0.0000000e+00 </wgt>
<wgt id='1351'> +0.0000000e+00 </wgt>
<wgt id='1352'> +0.0000000e+00 </wgt>
<wgt id='1353'> +0.0000000e+00 </wgt>
<wgt id='1354'> +0.0000000e+00 </wgt>
<wgt id='1355'> +0.0000000e+00 </wgt>
<wgt id='1356'> +0.0000000e+00 </wgt>
<wgt id='1357'> +0.0000000e+00 </wgt>
<wgt id='1358'> +0.0000000e+00 </wgt>
<wgt id='1359'> +0.0000000e+00 </wgt>
<wgt id='1360'> +0.0000000e+00 </wgt>
<wgt id='1361'> +0.0000000e+00 </wgt>
<wgt id='1362'> +0.0000000e+00 </wgt>
<wgt id='1363'> +0.0000000e+00 </wgt>
<wgt id='1364'> +0.0000000e+00 </wgt>
<wgt id='1365'> +0.0000000e+00 </wgt>
<wgt id='1366'> +0.0000000e+00 </wgt>
<wgt id='1367'> +0.0000000e+00 </wgt>
<wgt id='1368'> +0.0000000e+00 </wgt>
<wgt id='1369'> +0.0000000e+00 </wgt>
<wgt id='1370'> +0.0000000e+00 </wgt>
<wgt id='1371'> +0.0000000e+00 </wgt>
<wgt id='1372'> +0.0000000e+00 </wgt>
<wgt id='1373'> +0.0000000e+00 </wgt>
<wgt id='1374'> +0.0000000e+00 </wgt>
<wgt id='1375'> +0.0000000e+00 </wgt>
<wgt id='1376'> +0.0000000e+00 </wgt>
<wgt id='1377'> +0.0000000e+00 </wgt>
<wgt id='1378'> +0.0000000e+00 </wgt>
<wgt id='1379'> +0.0000000e+00 </wgt>
<wgt id='1380'> +0.0000000e+00 </wgt>
<wgt id='1381'> +0.0000000e+00 </wgt>
<wgt id='1382'> +0.0000000e+00 </wgt>
<wgt id='1383'> +0.0000000e+00 </wgt>
<wgt id='1384'> +0.0000000e+00 </wgt>
<wgt id='1385'> +0.0000000e+00 </wgt>
<wgt id='1386'> +0.0000000e+00 </wgt>
<wgt id='1387'> +0.0000000e+00 </wgt>
<wgt id='1388'> +0.0000000e+00 </wgt>
<wgt id='1389'> +0.0000000e+00 </wgt>
<wgt id='1390'> +0.0000000e+00 </wgt>
<wgt id='1391'> +0.0000000e+00 </wgt>
<wgt id='1392'> +0.0000000e+00 </wgt>
<wgt id='1393'> +0.0000000e+00 </wgt>
<wgt id='1394'> +0.0000000e+00 </wgt>
<wgt id='1395'> +0.0000000e+00 </wgt>
<wgt id='1396'> +0.0000000e+00 </wgt>
<wgt id='1397'> +0.0000000e+00 </wgt>
<wgt id='1398'> +0.0000000e+00 </wgt>
<wgt id='1399'> +0.0000000e+00 </wgt>
<wgt id='1400'> +0.0000000e+00 </wgt>
<wgt id='1401'> +0.0000000e+00 </wgt>
<wgt id='1402'> +0.0000000e+00 </wgt>
<wgt id='1403'> +0.0000000e+00 </wgt>
<wgt id='1404'> +0.0000000e+00 </wgt>
<wgt id='1405'> +0.0000000e+00 </wgt>
<wgt id='1406'> +0.0000000e+00 </wgt>
<wgt id='1407'> +0.0000000e+00 </wgt>
<wgt id='1408'> +0.0000000e+00 </wgt>
<wgt id='1409'> +0.0000000e+00 </wgt>
<wgt id='1410'> +0.0000000e+00 </wgt>
<wgt id='1411'> +0.0000000e+00 </wgt>
<wgt id='1412'> +0.0000000e+00 </wgt>
<wgt id='1413'> +0.0000000e+00 </wgt>
<wgt id='1414'> +0.0000000e+00 </wgt>
<wgt id='1415'> +0.0000000e+00 </wgt>
<wgt id='1416'> +0.0000000e+00 </wgt>
<wgt id='1417'> +0.0000000e+00 </wgt>
<wgt id='1418'> +0.0000000e+00 </wgt>
<wgt id='1419'> +0.0000000e+00 </wgt>
<wgt id='1420'> +0.0000000e+00 </wgt>
<wgt id='1421'> +0.0000000e+00 </wgt>
<wgt id='1422'> +0.0000000e+00 </wgt>
<wgt id='1423'> +0.0000000e+00 </wgt>
<wgt id='1424'> +0.0000000e+00 </wgt>
<wgt id='1425'> +0.0000000e+00 </wgt>
<wgt id='1426'> +0.0000000e+00 </wgt>
<wgt id='1427'> +0.0000000e+00 </wgt>
<wgt id='1428'> +0.0000000e+00 </wgt>
<wgt id='1429'> +0.0000000e+00 </wgt>
<wgt id='1430'> +0.0000000e+00 </wgt>
<wgt id='1431'> +0.0000000e+00 </wgt>
<wgt id='1432'> +0.0000000e+00 </wgt>
<wgt id='1433'> +0.0000000e+00 </wgt>
<wgt id='1434'> +0.0000000e+00 </wgt>
<wgt id='1435'> +0.0000000e+00 </wgt>
<wgt id='1436'> +0.0000000e+00 </wgt>
<wgt id='1437'> +0.0000000e+00 </wgt>
<wgt id='1438'> +0.0000000e+00 </wgt>
<wgt id='1439'> +0.0000000e+00 </wgt>
<wgt id='1440'> +0.0000000e+00 </wgt>
<wgt id='1441'> +0.0000000e+00 </wgt>
<wgt id='1442'> +0.0000000e+00 </wgt>
<wgt id='1443'> +0.0000000e+00 </wgt>
<wgt id='1444'> +0.0000000e+00 </wgt>
<wgt id='1445'> +0.0000000e+00 </wgt>
<wgt id='1446'> +0.0000000e+00 </wgt>
<wgt id='1447'> +0.0000000e+00 </wgt>
<wgt id='1448'> +0.0000000e+00 </wgt>
<wgt id='1449'> +0.0000000e+00 </wgt>
<wgt id='1450'> +0.0000000e+00 </wgt>
<wgt id='1451'> +0.0000000e+00 </wgt>
<wgt id='1452'> +0.0000000e+00 </wgt>
<wgt id='1453'> +0.0000000e+00 </wgt>
<wgt id='1454'> +0.0000000e+00 </wgt>
<wgt id='1455'> +0.0000000e+00 </wgt>
<wgt id='1456'> +0.0000000e+00 </wgt>
<wgt id='1457'> +0.0000000e+00 </wgt>
<wgt id='1458'> +0.0000000e+00 </wgt>
<wgt id='1459'> +0.0000000e+00 </wgt>
<wgt id='1460'> +0.0000000e+00 </wgt>
<wgt id='1461'> +0.0000000e+00 </wgt>
<wgt id='1462'> +0.0000000e+00 </wgt>
<wgt id='1463'> +0.0000000e+00 </wgt>
<wgt id='1464'> +0.0000000e+00 </wgt>
<wgt id='1465'> +0.0000000e+00 </wgt>
<wgt id='1466'> +0.0000000e+00 </wgt>
<wgt id='1467'> +0.0000000e+00 </wgt>
<wgt id='1468'> +0.0000000e+00 </wgt>
<wgt id='1469'> +0.0000000e+00 </wgt>
<wgt id='1470'> +0.0000000e+00 </wgt>
<wgt id='1471'> +0.0000000e+00 </wgt>
<wgt id='1472'> +0.0000000e+00 </wgt>
<wgt id='1473'> +0.0000000e+00 </wgt>
<wgt id='1474'> +0.0000000e+00 </wgt>
<wgt id='1475'> +0.0000000e+00 </wgt>
<wgt id='1476'> +0.0000000e+00 </wgt>
<wgt id='1477'> +0.0000000e+00 </wgt>
<wgt id='1478'> +0.0000000e+00 </wgt>
<wgt id='1479'> +0.0000000e+00 </wgt>
<wgt id='1480'> +0.0000000e+00 </wgt>
<wgt id='1481'> +0.0000000e+00 </wgt>
<wgt id='1482'> +0.0000000e+00 </wgt>
<wgt id='1483'> +0.0000000e+00 </wgt>
<wgt id='1484'> +0.0000000e+00 </wgt>
<wgt id='1485'> +0.0000000e+00 </wgt>
<wgt id='1486'> +0.0000000e+00 </wgt>
<wgt id='1487'> +0.0000000e+00 </wgt>
<wgt id='1488'> +0.0000000e+00 </wgt>
<wgt id='1489'> +0.0000000e+00 </wgt>
<wgt id='1490'> +0.0000000e+00 </wgt>
<wgt id='1491'> +0.0000000e+00 </wgt>
<wgt id='1492'> +0.0000000e+00 </wgt>
<wgt id='1493'> +0.0000000e+00 </wgt>
<wgt id='1494'> +0.0000000e+00 </wgt>
<wgt id='1495'> +0.0000000e+00 </wgt>
<wgt id='1496'> +0.0000000e+00 </wgt>
<wgt id='1497'> +0.0000000e+00 </wgt>
<wgt id='1498'> +0.0000000e+00 </wgt>
<wgt id='1499'> +0.0000000e+00 </wgt>
<wgt id='1500'> +0.0000000e+00 </wgt>
<wgt id='1501'> +0.0000000e+00 </wgt>
<wgt id='1502'> +0.0000000e+00 </wgt>
<wgt id='1503'> +0.0000000e+00 </wgt>
<wgt id='1504'> +0.0000000e+00 </wgt>
<wgt id='1505'> +0.0000000e+00 </wgt>
<wgt id='1506'> +0.0000000e+00 </wgt>
<wgt id='1507'> +0.0000000e+00 </wgt>
<wgt id='1508'> +0.0000000e+00 </wgt>
<wgt id='1509'> +0.0000000e+00 </wgt>
<wgt id='1510'> +0.0000000e+00 </wgt>
<wgt id='1511'> +0.0000000e+00 </wgt>
<wgt id='1512'> +0.0000000e+00 </wgt>
<wgt id='1513'> +0.0000000e+00 </wgt>
<wgt id='1514'> +0.0000000e+00 </wgt>
<wgt id='1515'> +0.0000000e+00 </wgt>
<wgt id='1516'> +0.0000000e+00 </wgt>
<wgt id='1517'> +0.0000000e+00 </wgt>
<wgt id='1518'> +0.0000000e+00 </wgt>
<wgt id='1519'> +0.0000000e+00 </wgt>
<wgt id='1520'> +0.0000000e+00 </wgt>
<wgt id='1521'> +0.0000000e+00 </wgt>
<wgt id='1522'> +0.0000000e+00 </wgt>
<wgt id='1523'> +0.0000000e+00 </wgt>
<wgt id='1524'> +0.0000000e+00 </wgt>
<wgt id='1525'> +0.0000000e+00 </wgt>
<wgt id='1526'> +0.0000000e+00 </wgt>
<wgt id='1527'> +0.0000000e+00 </wgt>
<wgt id='1528'> +0.0000000e+00 </wgt>
<wgt id='1529'> +0.0000000e+00 </wgt>
<wgt id='1530'> +0.0000000e+00 </wgt>
<wgt id='1531'> +0.0000000e+00 </wgt>
<wgt id='1532'> +0.0000000e+00 </wgt>
<wgt id='1533'> +0.0000000e+00 </wgt>
<wgt id='1534'> +0.0000000e+00 </wgt>
<wgt id='1535'> +0.0000000e+00 </wgt>
<wgt id='1536'> +0.0000000e+00 </wgt>
<wgt id='1537'> +0.0000000e+00 </wgt>
<wgt id='1538'> +0.0000000e+00 </wgt>
<wgt id='1539'> +0.0000000e+00 </wgt>
<wgt id='1540'> +0.0000000e+00 </wgt>
<wgt id='1541'> +0.0000000e+00 </wgt>
<wgt id='1542'> +0.0000000e+00 </wgt>
<wgt id='1543'> +0.0000000e+00 </wgt>
<wgt id='1544'> +0.0000000e+00 </wgt>
<wgt id='1545'> +0.0000000e+00 </wgt>
<wgt id='1546'> +0.0000000e+00 </wgt>
<wgt id='1547'> +0.0000000e+00 </wgt>
<wgt id='1548'> +0.0000000e+00 </wgt>
<wgt id='1549'> +0.0000000e+00 </wgt>
<wgt id='1550'> +0.0000000e+00 </wgt>
<wgt id='1551'> +0.0000000e+00 </wgt>
<wgt id='1552'> +0.0000000e+00 </wgt>
<wgt id='1553'> +0.0000000e+00 </wgt>
<wgt id='1554'> +0.0000000e+00 </wgt>
<wgt id='1555'> +0.0000000e+00 </wgt>
<wgt id='1556'> +0.0000000e+00 </wgt>
<wgt id='1557'> +0.0000000e+00 </wgt>
<wgt id='1558'> +0.0000000e+00 </wgt>
<wgt id='1559'> +0.0000000e+00 </wgt>
<wgt id='1560'> +0.0000000e+00 </wgt>
<wgt id='1561'> +0.0000000e+00 </wgt>
<wgt id='1562'> +0.0000000e+00 </wgt>
<wgt id='1563'> +0.0000000e+00 </wgt>
<wgt id='1564'> +0.0000000e+00 </wgt>
<wgt id='1565'> +0.0000000e+00 </wgt>
<wgt id='1566'> +0.0000000e+00 </wgt>
<wgt id='1567'> +0.0000000e+00 </wgt>
<wgt id='1568'> +0.0000000e+00 </wgt>
<wgt id='1569'> +0.0000000e+00 </wgt>
<wgt id='1570'> +0.0000000e+00 </wgt>
<wgt id='1571'> +0.0000000e+00 </wgt>
<wgt id='1572'> +0.0000000e+00 </wgt>
<wgt id='1573'> +0.0000000e+00 </wgt>
<wgt id='1574'> +0.0000000e+00 </wgt>
<wgt id='1575'> +0.0000000e+00 </wgt>
<wgt id='1576'> +0.0000000e+00 </wgt>
<wgt id='1577'> +0.0000000e+00 </wgt>
<wgt id='1578'> +0.0000000e+00 </wgt>
<wgt id='1579'> +0.0000000e+00 </wgt>
<wgt id='1580'> +0.0000000e+00 </wgt>
<wgt id='1581'> +0.0000000e+00 </wgt>
<wgt id='1582'> +0.0000000e+00 </wgt>
<wgt id='1583'> +0.0000000e+00 </wgt>
<wgt id='1584'> +0.0000000e+00 </wgt>
<wgt id='1585'> +0.0000000e+00 </wgt>
<wgt id='1586'> +0.0000000e+00 </wgt>
<wgt id='1587'> +0.0000000e+00 </wgt>
<wgt id='1588'> +0.0000000e+00 </wgt>
<wgt id='1589'> +0.0000000e+00 </wgt>
<wgt id='1590'> +0.0000000e+00 </wgt>
<wgt id='1591'> +0.0000000e+00 </wgt>
<wgt id='1592'> +0.0000000e+00 </wgt>
<wgt id='1593'> +0.0000000e+00 </wgt>
<wgt id='1594'> +0.0000000e+00 </wgt>
<wgt id='1595'> +0.0000000e+00 </wgt>
<wgt id='1596'> +0.0000000e+00 </wgt>
<wgt id='1597'> +0.0000000e+00 </wgt>
<wgt id='1598'> +0.0000000e+00 </wgt>
<wgt id='1599'> +0.0000000e+00 </wgt>
<wgt id='1600'> +0.0000000e+00 </wgt>
<wgt id='1601'> +0.0000000e+00 </wgt>
<wgt id='1602'> +0.0000000e+00 </wgt>
<wgt id='1603'> +0.0000000e+00 </wgt>
<wgt id='1604'> +0.0000000e+00 </wgt>
<wgt id='1605'> +0.0000000e+00 </wgt>
<wgt id='1606'> +0.0000000e+00 </wgt>
<wgt id='1607'> +0.0000000e+00 </wgt>
<wgt id='1608'> +0.0000000e+00 </wgt>
<wgt id='1609'> +0.0000000e+00 </wgt>
<wgt id='1610'> +0.0000000e+00 </wgt>
<wgt id='1611'> +0.0000000e+00 </wgt>
<wgt id='1612'> +1.5704685e-04 </wgt>
<wgt id='1613'> +1.5702618e-04 </wgt>
<wgt id='1614'> +1.5664523e-04 </wgt>
<wgt id='1615'> +1.5651288e-04 </wgt>
<wgt id='1616'> +1.5761938e-04 </wgt>
<wgt id='1617'> +1.5733428e-04 </wgt>
<wgt id='1618'> +1.5697754e-04 </wgt>
<wgt id='1619'> +1.5716962e-04 </wgt>
<wgt id='1620'> +1.5661269e-04 </wgt>
<wgt id='1621'> +1.5746779e-04 </wgt>
<wgt id='1622'> +1.5673583e-04 </wgt>
<wgt id='1623'> +1.5609422e-04 </wgt>
<wgt id='1624'> +1.5642901e-04 </wgt>
<wgt id='1625'> +1.5582082e-04 </wgt>
<wgt id='1626'> +1.5667453e-04 </wgt>
<wgt id='1627'> +1.5656586e-04 </wgt>
<wgt id='1628'> +1.5762025e-04 </wgt>
<wgt id='1629'> +1.5709317e-04 </wgt>
<wgt id='1630'> +1.5647381e-04 </wgt>
<wgt id='1631'> +1.5727550e-04 </wgt>
<wgt id='1632'> +1.5687374e-04 </wgt>
<wgt id='1633'> +1.5757188e-04 </wgt>
<wgt id='1634'> +1.5714440e-04 </wgt>
<wgt id='1635'> +1.5719198e-04 </wgt>
<wgt id='1636'> +1.5651886e-04 </wgt>
<wgt id='1637'> +1.5721049e-04 </wgt>
<wgt id='1638'> +1.5732409e-04 </wgt>
<wgt id='1639'> +1.5693386e-04 </wgt>
<wgt id='1640'> +1.5669590e-04 </wgt>
<wgt id='1641'> +1.5742969e-04 </wgt>
<wgt id='1642'> +1.5721647e-04 </wgt>
<wgt id='1643'> +1.5698582e-04 </wgt>
<wgt id='1644'> +1.5682275e-04 </wgt>
<wgt id='1645'> +1.5666196e-04 </wgt>
<wgt id='1646'> +1.5711453e-04 </wgt>
<wgt id='1647'> +1.5733517e-04 </wgt>
<wgt id='1648'> +1.5719585e-04 </wgt>
<wgt id='1649'> +1.5681074e-04 </wgt>
<wgt id='1650'> +1.5678753e-04 </wgt>
<wgt id='1651'> +1.5676829e-04 </wgt>
<wgt id='1652'> +1.5741051e-04 </wgt>
<wgt id='1653'> +1.5762599e-04 </wgt>
<wgt id='1654'> +1.5755020e-04 </wgt>
<wgt id='1655'> +1.5583792e-04 </wgt>
<wgt id='1656'> +1.5674344e-04 </wgt>
<wgt id='1657'> +1.5694198e-04 </wgt>
<wgt id='1658'> +1.5806515e-04 </wgt>
<wgt id='1659'> +1.5795111e-04 </wgt>
<wgt id='1660'> +1.5603267e-04 </wgt>
<wgt id='1661'> +1.5644189e-04 </wgt>
<wgt id='1662'> +1.5700162e-04 </wgt>
<wgt id='1663'> +1.5616238e-04 </wgt>
<wgt id='1664'> +1.5667305e-04 </wgt>
<wgt id='1665'> +1.5696536e-04 </wgt>
<wgt id='1666'> +1.5718174e-04 </wgt>
<wgt id='1667'> +1.5718584e-04 </wgt>
<wgt id='1668'> +1.5675956e-04 </wgt>
<wgt id='1669'> +1.5640601e-04 </wgt>
<wgt id='1670'> +1.5684055e-04 </wgt>
<wgt id='1671'> +1.5701401e-04 </wgt>
<wgt id='1672'> +1.5733531e-04 </wgt>
<wgt id='1673'> +1.5712940e-04 </wgt>
<wgt id='1674'> +1.5683763e-04 </wgt>
<wgt id='1675'> +1.5721963e-04 </wgt>
<wgt id='1676'> +1.5710435e-04 </wgt>
<wgt id='1677'> +1.5689601e-04 </wgt>
<wgt id='1678'> +1.5744142e-04 </wgt>
<wgt id='1679'> +1.5702708e-04 </wgt>
<wgt id='1680'> +1.5723463e-04 </wgt>
<wgt id='1681'> +1.5752390e-04 </wgt>
<wgt id='1682'> +1.5621699e-04 </wgt>
<wgt id='1683'> +1.5676122e-04 </wgt>
<wgt id='1684'> +1.5711062e-04 </wgt>
<wgt id='1685'> +1.5643000e-04 </wgt>
<wgt id='1686'> +1.5659908e-04 </wgt>
<wgt id='1687'> +1.5656843e-04 </wgt>
<wgt id='1688'> +1.5762370e-04 </wgt>
<wgt id='1689'> +1.5596187e-04 </wgt>
<wgt id='1690'> +1.5730682e-04 </wgt>
<wgt id='1691'> +1.5710777e-04 </wgt>
<wgt id='1692'> +1.5756546e-04 </wgt>
<wgt id='1693'> +1.5723185e-04 </wgt>
<wgt id='1694'> +1.5743273e-04 </wgt>
<wgt id='1695'> +1.5705152e-04 </wgt>
<wgt id='1696'> +1.5696728e-04 </wgt>
<wgt id='1697'> +1.5720972e-04 </wgt>
<wgt id='1698'> +1.5715729e-04 </wgt>
<wgt id='1699'> +1.5656894e-04 </wgt>
<wgt id='1700'> +1.5713726e-04 </wgt>
<wgt id='1701'> +1.5684506e-04 </wgt>
<wgt id='1702'> +1.5726884e-04 </wgt>
<wgt id='1703'> +1.5685713e-04 </wgt>
<wgt id='1704'> +1.5694289e-04 </wgt>
<wgt id='1705'> +1.5732948e-04 </wgt>
<wgt id='1706'> +1.5707367e-04 </wgt>
<wgt id='1707'> +1.5735629e-04 </wgt>
<wgt id='1708'> +1.5685366e-04 </wgt>
<wgt id='1709'> +1.5751737e-04 </wgt>
<wgt id='1710'> +1.5690180e-04 </wgt>
<wgt id='1711'> +1.5709927e-04 </wgt>
<wgt id='1712'> +1.5710242e-04 </wgt>
<wgt id='1713'> +1.5189979e-04 </wgt>
<wgt id='1714'> +1.6348571e-04 </wgt>
<wgt id='1715'> +0.0000000e+00 </wgt>
<wgt id='1716'> +0.0000000e+00 </wgt>
<wgt id='1717'> +0.0000000e+00 </wgt>
<wgt id='1718'> +0.0000000e+00 </wgt>
<wgt id='1719'> +0.0000000e+00 </wgt>
<wgt id='1720'> +0.0000000e+00 </wgt>
<wgt id='1721'> +0.0000000e+00 </wgt>
<wgt id='1722'> +0.0000000e+00 </wgt>
<wgt id='1723'> +0.0000000e+00 </wgt>
<wgt id='1724'> +0.0000000e+00 </wgt>
<wgt id='1725'> +0.0000000e+00 </wgt>
<wgt id='1726'> +0.0000000e+00 </wgt>
<wgt id='1727'> +0.0000000e+00 </wgt>
<wgt id='1728'> +0.0000000e+00 </wgt>
<wgt id='1729'> +0.0000000e+00 </wgt>
<wgt id='1730'> +0.0000000e+00 </wgt>
<wgt id='1731'> +0.0000000e+00 </wgt>
<wgt id='1732'> +0.0000000e+00 </wgt>
<wgt id='1733'> +0.0000000e+00 </wgt>
<wgt id='1734'> +0.0000000e+00 </wgt>
<wgt id='1735'> +0.0000000e+00 </wgt>
<wgt id='1736'> +0.0000000e+00 </wgt>
<wgt id='1737'> +0.0000000e+00 </wgt>
<wgt id='1738'> +0.0000000e+00 </wgt>
<wgt id='1739'> +0.0000000e+00 </wgt>
<wgt id='1740'> +0.0000000e+00 </wgt>
<wgt id='1741'> +0.0000000e+00 </wgt>
<wgt id='1742'> +0.0000000e+00 </wgt>
<wgt id='1743'> +0.0000000e+00 </wgt>
<wgt id='1744'> +0.0000000e+00 </wgt>
<wgt id='1745'> +0.0000000e+00 </wgt>
<wgt id='1746'> +0.0000000e+00 </wgt>
<wgt id='1747'> +0.0000000e+00 </wgt>
<wgt id='1748'> +0.0000000e+00 </wgt>
<wgt id='1749'> +0.0000000e+00 </wgt>
<wgt id='1750'> +0.0000000e+00 </wgt>
<wgt id='1751'> +0.0000000e+00 </wgt>
<wgt id='1752'> +0.0000000e+00 </wgt>
<wgt id='1753'> +0.0000000e+00 </wgt>
<wgt id='1754'> +0.0000000e+00 </wgt>
<wgt id='1755'> +0.0000000e+00 </wgt>
<wgt id='1756'> +0.0000000e+00 </wgt>
<wgt id='1757'> +0.0000000e+00 </wgt>
<wgt id='1758'> +0.0000000e+00 </wgt>
<wgt id='1759'> +0.0000000e+00 </wgt>
<wgt id='1760'> +0.0000000e+00 </wgt>
<wgt id='1761'> +0.0000000e+00 </wgt>
<wgt id='1762'> +0.0000000e+00 </wgt>
<wgt id='1763'> +0.0000000e+00 </wgt>
<wgt id='1764'> +0.0000000e+00 </wgt>
<wgt id='1765'> +0.0000000e+00 </wgt>
<wgt id='1766'> +0.0000000e+00 </wgt>
<wgt id='1767'> +0.0000000e+00 </wgt>
<wgt id='1768'> +0.0000000e+00 </wgt>
<wgt id='1769'> +0.0000000e+00 </wgt>
<wgt id='1770'> +0.0000000e+00 </wgt>
<wgt id='1771'> +0.0000000e+00 </wgt>
<wgt id='1772'> +0.0000000e+00 </wgt>
<wgt id='1773'> +0.0000000e+00 </wgt>
<wgt id='1774'> +0.0000000e+00 </wgt>
<wgt id='1775'> +0.0000000e+00 </wgt>
<wgt id='1776'> +0.0000000e+00 </wgt>
<wgt id='1777'> +0.0000000e+00 </wgt>
<wgt id='1778'> +0.0000000e+00 </wgt>
<wgt id='1779'> +0.0000000e+00 </wgt>
<wgt id='1780'> +0.0000000e+00 </wgt>
<wgt id='1781'> +0.0000000e+00 </wgt>
<wgt id='1782'> +0.0000000e+00 </wgt>
<wgt id='1783'> +0.0000000e+00 </wgt>
<wgt id='1784'> +0.0000000e+00 </wgt>
<wgt id='1785'> +0.0000000e+00 </wgt>
<wgt id='1786'> +0.0000000e+00 </wgt>
<wgt id='1787'> +0.0000000e+00 </wgt>
<wgt id='1788'> +0.0000000e+00 </wgt>
<wgt id='1789'> +0.0000000e+00 </wgt>
<wgt id='1790'> +0.0000000e+00 </wgt>
<wgt id='1791'> +0.0000000e+00 </wgt>
<wgt id='1792'> +0.0000000e+00 </wgt>
<wgt id='1793'> +0.0000000e+00 </wgt>
<wgt id='1794'> +0.0000000e+00 </wgt>
<wgt id='1795'> +0.0000000e+00 </wgt>
<wgt id='1796'> +0.0000000e+00 </wgt>
<wgt id='1797'> +0.0000000e+00 </wgt>
<wgt id='1798'> +0.0000000e+00 </wgt>
<wgt id='1799'> +0.0000000e+00 </wgt>
<wgt id='1800'> +0.0000000e+00 </wgt>
<wgt id='1801'> +0.0000000e+00 </wgt>
<wgt id='1802'> +0.0000000e+00 </wgt>
<wgt id='1803'> +0.0000000e+00 </wgt>
<wgt id='1804'> +0.0000000e+00 </wgt>
<wgt id='1805'> +0.0000000e+00 </wgt>
<wgt id='1806'> +0.0000000e+00 </wgt>
<wgt id='1807'> +0.0000000e+00 </wgt>
<wgt id='1808'> +0.0000000e+00 </wgt>
<wgt id='1809'> +0.0000000e+00 </wgt>
<wgt id='1810'> +0.0000000e+00 </wgt>
<wgt id='1811'> +0.0000000e+00 </wgt>
<wgt id='1812'> +0.0000000e+00 </wgt>
<wgt id='1813'> +0.0000000e+00 </wgt>
<wgt id='1814'> +0.0000000e+00 </wgt>
<wgt id='1815'> +0.0000000e+00 </wgt>
<wgt id='1816'> +0.0000000e+00 </wgt>
<wgt id='1817'> +0.0000000e+00 </wgt>
<wgt id='1818'> +0.0000000e+00 </wgt>
<wgt id='1819'> +0.0000000e+00 </wgt>
<wgt id='1820'> +0.0000000e+00 </wgt>
<wgt id='1821'> +0.0000000e+00 </wgt>
<wgt id='1822'> +0.0000000e+00 </wgt>
<wgt id='1823'> +0.0000000e+00 </wgt>
<wgt id='1824'> +0.0000000e+00 </wgt>
<wgt id='1825'> +0.0000000e+00 </wgt>
<wgt id='1826'> +0.0000000e+00 </wgt>
<wgt id='1827'> +0.0000000e+00 </wgt>
<wgt id='1828'> +0.0000000e+00 </wgt>
<wgt id='1829'> +0.0000000e+00 </wgt>
<wgt id='1830'> +0.0000000e+00 </wgt>
<wgt id='1831'> +0.0000000e+00 </wgt>
<wgt id='1832'> +0.0000000e+00 </wgt>
<wgt id='1833'> +0.0000000e+00 </wgt>
<wgt id='1834'> +0.0000000e+00 </wgt>
<wgt id='1835'> +0.0000000e+00 </wgt>
<wgt id='1836'> +0.0000000e+00 </wgt>
<wgt id='1837'> +0.0000000e+00 </wgt>
<wgt id='1838'> +0.0000000e+00 </wgt>
<wgt id='1839'> +0.0000000e+00 </wgt>
<wgt id='1840'> +0.0000000e+00 </wgt>
<wgt id='1841'> +0.0000000e+00 </wgt>
<wgt id='1842'> +0.0000000e+00 </wgt>
<wgt id='1843'> +0.0000000e+00 </wgt>
<wgt id='1844'> +0.0000000e+00 </wgt>
<wgt id='1845'> +0.0000000e+00 </wgt>
<wgt id='1846'> +0.0000000e+00 </wgt>
<wgt id='1847'> +0.0000000e+00 </wgt>
<wgt id='1848'> +0.0000000e+00 </wgt>
<wgt id='1849'> +0.0000000e+00 </wgt>
<wgt id='1850'> +0.0000000e+00 </wgt>
<wgt id='1851'> +0.0000000e+00 </wgt>
<wgt id='1852'> +0.0000000e+00 </wgt>
<wgt id='1853'> +0.0000000e+00 </wgt>
<wgt id='1854'> +0.0000000e+00 </wgt>
<wgt id='1855'> +0.0000000e+00 </wgt>
<wgt id='1856'> +0.0000000e+00 </wgt>
<wgt id='1857'> +0.0000000e+00 </wgt>
<wgt id='1858'> +0.0000000e+00 </wgt>
<wgt id='1859'> +0.0000000e+00 </wgt>
<wgt id='1860'> +0.0000000e+00 </wgt>
<wgt id='1861'> +0.0000000e+00 </wgt>
<wgt id='1862'> +0.0000000e+00 </wgt>
<wgt id='1863'> +0.0000000e+00 </wgt>
<wgt id='1864'> +0.0000000e+00 </wgt>
<wgt id='1865'> +0.0000000e+00 </wgt>
<wgt id='1866'> +0.0000000e+00 </wgt>
<wgt id='1867'> +0.0000000e+00 </wgt>
<wgt id='1868'> +0.0000000e+00 </wgt>
<wgt id='1869'> +0.0000000e+00 </wgt>
<wgt id='1870'> +0.0000000e+00 </wgt>
<wgt id='1871'> +0.0000000e+00 </wgt>
<wgt id='1872'> +0.0000000e+00 </wgt>
<wgt id='1873'> +0.0000000e+00 </wgt>
<wgt id='1874'> +0.0000000e+00 </wgt>
<wgt id='1875'> +0.0000000e+00 </wgt>
<wgt id='1876'> +0.0000000e+00 </wgt>
<wgt id='1877'> +0.0000000e+00 </wgt>
<wgt id='1878'> +0.0000000e+00 </wgt>
<wgt id='1879'> +0.0000000e+00 </wgt>
<wgt id='1880'> +0.0000000e+00 </wgt>
<wgt id='1881'> +0.0000000e+00 </wgt>
<wgt id='1882'> +0.0000000e+00 </wgt>
<wgt id='1883'> +0.0000000e+00 </wgt>
<wgt id='1884'> +0.0000000e+00 </wgt>
<wgt id='1885'> +0.0000000e+00 </wgt>
<wgt id='1886'> +0.0000000e+00 </wgt>
<wgt id='1887'> +0.0000000e+00 </wgt>
<wgt id='1888'> +0.0000000e+00 </wgt>
<wgt id='1889'> +0.0000000e+00 </wgt>
<wgt id='1890'> +0.0000000e+00 </wgt>
<wgt id='1891'> +0.0000000e+00 </wgt>
<wgt id='1892'> +0.0000000e+00 </wgt>
<wgt id='1893'> +0.0000000e+00 </wgt>
<wgt id='1894'> +0.0000000e+00 </wgt>
<wgt id='1895'> +0.0000000e+00 </wgt>
<wgt id='1896'> +0.0000000e+00 </wgt>
<wgt id='1897'> +0.0000000e+00 </wgt>
<wgt id='1898'> +0.0000000e+00 </wgt>
<wgt id='1899'> +0.0000000e+00 </wgt>
<wgt id='1900'> +0.0000000e+00 </wgt>
<wgt id='1901'> +0.0000000e+00 </wgt>
<wgt id='1902'> +0.0000000e+00 </wgt>
<wgt id='1903'> +0.0000000e+00 </wgt>
<wgt id='1904'> +0.0000000e+00 </wgt>
<wgt id='1905'> +0.0000000e+00 </wgt>
<wgt id='1906'> +0.0000000e+00 </wgt>
<wgt id='1907'> +0.0000000e+00 </wgt>
<wgt id='1908'> +0.0000000e+00 </wgt>
<wgt id='1909'> +0.0000000e+00 </wgt>
<wgt id='1910'> +0.0000000e+00 </wgt>
<wgt id='1911'> +0.0000000e+00 </wgt>
<wgt id='1912'> +0.0000000e+00 </wgt>
<wgt id='1913'> +0.0000000e+00 </wgt>
<wgt id='1914'> +0.0000000e+00 </wgt>
<wgt id='1915'> +0.0000000e+00 </wgt>
<wgt id='1916'> +0.0000000e+00 </wgt>
<wgt id='1917'> +0.0000000e+00 </wgt>
<wgt id='1918'> +0.0000000e+00 </wgt>
<wgt id='1919'> +0.0000000e+00 </wgt>
<wgt id='1920'> +0.0000000e+00 </wgt>
<wgt id='1921'> +0.0000000e+00 </wgt>
<wgt id='1922'> +0.0000000e+00 </wgt>
<wgt id='1923'> +0.0000000e+00 </wgt>
<wgt id='1924'> +0.0000000e+00 </wgt>
<wgt id='1925'> +0.0000000e+00 </wgt>
<wgt id='1926'> +0.0000000e+00 </wgt>
<wgt id='1927'> +0.0000000e+00 </wgt>
<wgt id='1928'> +0.0000000e+00 </wgt>
<wgt id='1929'> +0.0000000e+00 </wgt>
<wgt id='1930'> +0.0000000e+00 </wgt>
<wgt id='1931'> +0.0000000e+00 </wgt>
<wgt id='1932'> +0.0000000e+00 </wgt>
<wgt id='1933'> +0.0000000e+00 </wgt>
<wgt id='1934'> +0.0000000e+00 </wgt>
<wgt id='1935'> +0.0000000e+00 </wgt>
<wgt id='1936'> +0.0000000e+00 </wgt>
<wgt id='1937'> +0.0000000e+00 </wgt>
<wgt id='1938'> +0.0000000e+00 </wgt>
<wgt id='1939'> +0.0000000e+00 </wgt>
<wgt id='1940'> +0.0000000e+00 </wgt>
<wgt id='1941'> +0.0000000e+00 </wgt>
<wgt id='1942'> +0.0000000e+00 </wgt>
<wgt id='1943'> +0.0000000e+00 </wgt>
<wgt id='1944'> +0.0000000e+00 </wgt>
<wgt id='1945'> +0.0000000e+00 </wgt>
<wgt id='1946'> +0.0000000e+00 </wgt>
<wgt id='1947'> +0.0000000e+00 </wgt>
<wgt id='1948'> +0.0000000e+00 </wgt>
<wgt id='1949'> +0.0000000e+00 </wgt>
<wgt id='1950'> +0.0000000e+00 </wgt>
<wgt id='1951'> +0.0000000e+00 </wgt>
<wgt id='1952'> +0.0000000e+00 </wgt>
<wgt id='1953'> +0.0000000e+00 </wgt>
<wgt id='1954'> +0.0000000e+00 </wgt>
<wgt id='1955'> +0.0000000e+00 </wgt>
<wgt id='1956'> +0.0000000e+00 </wgt>
<wgt id='1957'> +0.0000000e+00 </wgt>
<wgt id='1958'> +0.0000000e+00 </wgt>
<wgt id='1959'> +0.0000000e+00 </wgt>
<wgt id='1960'> +0.0000000e+00 </wgt>
<wgt id='1961'> +0.0000000e+00 </wgt>
<wgt id='1962'> +0.0000000e+00 </wgt>
<wgt id='1963'> +0.0000000e+00 </wgt>
<wgt id='1964'> +0.0000000e+00 </wgt>
<wgt id='1965'> +0.0000000e+00 </wgt>
<wgt id='1966'> +0.0000000e+00 </wgt>
<wgt id='1967'> +0.0000000e+00 </wgt>
<wgt id='1968'> +0.0000000e+00 </wgt>
<wgt id='1969'> +0.0000000e+00 </wgt>
<wgt id='1970'> +0.0000000e+00 </wgt>
<wgt id='1971'> +0.0000000e+00 </wgt>
<wgt id='1972'> +0.0000000e+00 </wgt>
<wgt id='1973'> +0.0000000e+00 </wgt>
<wgt id='1974'> +0.0000000e+00 </wgt>
<wgt id='1975'> +0.0000000e+00 </wgt>
<wgt id='1976'> +0.0000000e+00 </wgt>
<wgt id='1977'> +0.0000000e+00 </wgt>
<wgt id='1978'> +0.0000000e+00 </wgt>
<wgt id='1979'> +0.0000000e+00 </wgt>
<wgt id='1980'> +0.0000000e+00 </wgt>
<wgt id='1981'> +0.0000000e+00 </wgt>
<wgt id='1982'> +0.0000000e+00 </wgt>
<wgt id='1983'> +0.0000000e+00 </wgt>
<wgt id='1984'> +0.0000000e+00 </wgt>
<wgt id='1985'> +0.0000000e+00 </wgt>
<wgt id='1986'> +0.0000000e+00 </wgt>
<wgt id='1987'> +0.0000000e+00 </wgt>
<wgt id='1988'> +0.0000000e+00 </wgt>
<wgt id='1989'> +0.0000000e+00 </wgt>
<wgt id='1990'> +0.0000000e+00 </wgt>
<wgt id='1991'> +0.0000000e+00 </wgt>
<wgt id='1992'> +0.0000000e+00 </wgt>
<wgt id='1993'> +0.0000000e+00 </wgt>
<wgt id='1994'> +0.0000000e+00 </wgt>
<wgt id='1995'> +0.0000000e+00 </wgt>
<wgt id='1996'> +0.0000000e+00 </wgt>
<wgt id='1997'> +0.0000000e+00 </wgt>
<wgt id='1998'> +0.0000000e+00 </wgt>
<wgt id='1999'> +0.0000000e+00 </wgt>
<wgt id='2000'> +0.0000000e+00 </wgt>
<wgt id='2001'> +0.0000000e+00 </wgt>
<wgt id='2002'> +0.0000000e+00 </wgt>
<wgt id='2003'> +0.0000000e+00 </wgt>
<wgt id='2004'> +0.0000000e+00 </wgt>
<wgt id='2005'> +0.0000000e+00 </wgt>
<wgt id='2006'> +0.0000000e+00 </wgt>
<wgt id='2007'> +0.0000000e+00 </wgt>
<wgt id='2008'> +0.0000000e+00 </wgt>
<wgt id='2009'> +0.0000000e+00 </wgt>
<wgt id='2010'> +0.0000000e+00 </wgt>
<wgt id='2011'> +0.0000000e+00 </wgt>
<wgt id='2012'> +0.0000000e+00 </wgt>
<wgt id='2013'> +0.0000000e+00 </wgt>
<wgt id='2014'> +0.0000000e+00 </wgt>
<wgt id='2015'> +0.0000000e+00 </wgt>
<wgt id='2016'> +0.0000000e+00 </wgt>
<wgt id='2017'> +0.0000000e+00 </wgt>
<wgt id='2018'> +0.0000000e+00 </wgt>
<wgt id='2019'> +0.0000000e+00 </wgt>
<wgt id='2020'> +0.0000000e+00 </wgt>
<wgt id='2021'> +0.0000000e+00 </wgt>
<wgt id='2022'> +0.0000000e+00 </wgt>
</rwgt>
</event>
</LesHouchesEvents>
